/*--------------------------------*- C++ -*----------------------------------*\
| =========                 |                                                 |
| \\      /  F ield         | OpenFOAM: The Open Source CFD Toolbox           |
|  \\    /   O peration     | Version:  2312                                  |
|   \\  /    A nd           | Website:  www.openfoam.com                      |
|    \\/     M anipulation  |                                                 |
\*---------------------------------------------------------------------------*/
FoamFile
{
    version     2.0;
    format      ascii;
    arch        "LSB;label=32;scalar=64";
    class       volVectorField;
    location    "700";
    object      U;
}
// * * * * * * * * * * * * * * * * * * * * * * * * * * * * * * * * * * * * * //

dimensions      [0 1 -1 0 0 0 0];

internalField   nonuniform List<vector> 
76025
(
(0.0362959 -0.00697777 0)
(0.0364441 -0.00708889 1.27083e-21)
(0.0366038 -0.00719684 0)
(0.0367751 -0.00730522 0)
(0.0369323 -0.00740501 -2.40278e-21)
(0.0371064 -0.00751216 -4.70437e-21)
(0.0372648 -0.00760987 8.17199e-21)
(0.0374239 -0.00770723 -3.48003e-21)
(0.0375881 -0.0078031 -1.14284e-21)
(0.0377594 -0.00789752 1.12574e-21)
(0.0379302 -0.00798892 -1.95561e-23)
(0.0381031 -0.008077 3.20498e-21)
(0.0382755 -0.00816569 -4.29112e-21)
(0.0384508 -0.00824797 0)
(0.0386447 -0.00833448 1.04299e-21)
(0.0388266 -0.00841719 0)
(0.0390206 -0.00849824 0)
(0.0392098 -0.00857948 0)
(0.0394034 -0.00865739 9.71469e-22)
(0.0395927 -0.00873995 -9.72667e-22)
(0.0397898 -0.00881584 -9.59222e-22)
(0.0399976 -0.0088887 -2.79355e-21)
(0.0402096 -0.00895836 1.86938e-21)
(0.0404263 -0.00902923 2.73136e-21)
(0.0406458 -0.00909948 -3.39122e-23)
(0.0408605 -0.0091744 8.64431e-22)
(0.0410858 -0.00923612 -2.64481e-21)
(0.0413051 -0.00930074 2.62784e-21)
(0.0415223 -0.00936488 -8.58002e-22)
(0.0417392 -0.00941527 8.52419e-22)
(0.0419464 -0.00946408 8.40582e-22)
(0.042148 -0.00952243 -1.6033e-21)
(0.0423494 -0.00956103 2.34028e-21)
(0.042544 -0.00961561 3.57266e-22)
(0.0427347 -0.00966125 -1.80466e-21)
(0.0429203 -0.00971867 7.39165e-24)
(0.0431032 -0.0097788 3.3168e-22)
(0.0432852 -0.0098212 -1.61276e-22)
(0.0434694 -0.00987059 -1.61612e-24)
(0.0436588 -0.00992016 2.21792e-22)
(0.0438529 -0.00998345 -1.44882e-22)
(0.0440519 -0.0100552 6.8911e-23)
(0.0442627 -0.0101214 -1.33379e-22)
(0.044482 -0.0101994 2.57939e-22)
(0.0447128 -0.0102758 2.50807e-22)
(0.0449556 -0.0103753 -4.84689e-22)
(0.0452047 -0.0104767 -4.7448e-22)
(0.0454586 -0.0105874 1.40189e-21)
(0.0457159 -0.0107061 -9.01812e-22)
(0.0459744 -0.0108396 1.15859e-23)
(0.0462344 -0.0109898 2.20954e-21)
(0.0464951 -0.011154 8.59722e-22)
(0.0467574 -0.0113337 -8.88352e-22)
(0.0470264 -0.0115367 0)
(0.0473138 -0.0117629 8.5672e-22)
(0.047618 -0.0120276 9.09739e-22)
(0.0479401 -0.0123285 -4.12899e-23)
(0.0482923 -0.0126811 8.95052e-22)
(0.0486731 -0.0131042 -9.4706e-22)
(0.0490738 -0.0135847 2.73646e-21)
(0.049507 -0.0140901 2.06638e-21)
(0.0500419 -0.0147291 2.55292e-22)
(0.0506486 -0.0154454 0)
(0.0513482 -0.0162703 -5.30376e-21)
(0.0522064 -0.0172001 1.75896e-21)
(0.0533371 -0.0183022 -1.0576e-21)
(0.0545776 -0.0195366 1.81537e-21)
(0.055339 -0.0203566 -2.28804e-21)
(0.0538263 -0.0207394 -3.62425e-21)
(0.0361641 -0.00728396 1.35094e-21)
(0.0363203 -0.00739839 3.9361e-21)
(0.0364804 -0.00750955 -5.20562e-21)
(0.0366457 -0.00761614 0)
(0.0368133 -0.00772232 6.24034e-21)
(0.0369865 -0.00782423 -5.29038e-23)
(0.0371634 -0.00792582 -4.89668e-21)
(0.0373374 -0.00802446 0)
(0.0375123 -0.0081203 -2.40487e-23)
(0.0376889 -0.00821452 -1.15165e-21)
(0.0378691 -0.00830677 1.13396e-21)
(0.0380509 -0.0083961 -2.17129e-23)
(0.038233 -0.00848367 0)
(0.0384148 -0.00856938 0)
(0.0385989 -0.00865003 2.12288e-21)
(0.0387861 -0.00873267 -5.34902e-21)
(0.0389762 -0.00881038 -1.05537e-21)
(0.039168 -0.00888908 3.08541e-21)
(0.0393614 -0.00896267 -2.04936e-21)
(0.0395553 -0.0090368 9.94212e-22)
(0.0397521 -0.00910759 -9.78704e-22)
(0.0399501 -0.00917625 1.96743e-21)
(0.0401496 -0.00924296 -1.90662e-21)
(0.040351 -0.00930815 2.85605e-21)
(0.0405547 -0.0093714 -1.89341e-21)
(0.0407606 -0.00943416 -2.75447e-21)
(0.0409667 -0.00949301 1.84974e-21)
(0.0411727 -0.0095515 0)
(0.0413793 -0.00960818 0)
(0.0415844 -0.00966378 8.93612e-22)
(0.0417896 -0.00971723 0)
(0.0419977 -0.00976845 8.40808e-22)
(0.042205 -0.00981926 -7.96099e-22)
(0.0424125 -0.00986954 1.16944e-21)
(0.0426218 -0.00992098 -4.11616e-24)
(0.0428334 -0.00997187 3.55325e-22)
(0.0430469 -0.0100238 0)
(0.0432598 -0.0100767 6.57293e-22)
(0.0434747 -0.0101319 -4.78454e-22)
(0.0436939 -0.0101909 3.84494e-22)
(0.0439174 -0.0102539 -2.22688e-22)
(0.0441442 -0.0103207 4.61909e-24)
(0.0443731 -0.0103902 -7.30871e-23)
(0.044605 -0.0104652 6.7525e-23)
(0.044841 -0.0105442 -5.22103e-22)
(0.0450808 -0.0106303 2.56629e-22)
(0.0453217 -0.0107231 2.50752e-22)
(0.0455629 -0.0108244 -4.78601e-22)
(0.0458046 -0.0109364 -1.42727e-21)
(0.0460472 -0.0110611 6.12897e-24)
(0.0462913 -0.0111998 -1.38524e-21)
(0.0465376 -0.0113557 4.6585e-22)
(0.0467883 -0.0115318 1.38182e-21)
(0.0470468 -0.0117321 -9.19523e-22)
(0.0473162 -0.0119597 0)
(0.0476009 -0.0122263 -2.88115e-21)
(0.0479004 -0.0125321 -3.87538e-23)
(0.0482205 -0.0128895 9.80246e-22)
(0.0485625 -0.0133058 1.07161e-21)
(0.0489298 -0.0137874 0)
(0.0493387 -0.0143433 -9.70885e-22)
(0.0498033 -0.0149812 -3.31748e-21)
(0.0503358 -0.0157278 0)
(0.0509682 -0.0165989 2.34252e-21)
(0.0517708 -0.0176277 -1.72787e-21)
(0.0528567 -0.0188361 2.65177e-21)
(0.0539078 -0.0200406 -1.31436e-21)
(0.053821 -0.0206419 2.35375e-21)
(0.0510875 -0.020988 2.13976e-21)
(0.0359997 -0.0076064 -6.93901e-21)
(0.0361731 -0.00772575 4.14221e-21)
(0.0363473 -0.00784153 -1.36921e-21)
(0.03652 -0.00795154 5.30134e-21)
(0.0366942 -0.00805874 -6.59765e-21)
(0.0368703 -0.00816295 -5.13384e-21)
(0.0370502 -0.00826506 6.39322e-21)
(0.0372335 -0.00836432 0)
(0.0374189 -0.00846091 -2.47352e-23)
(0.0376055 -0.00855502 0)
(0.0377933 -0.00864694 -1.20216e-21)
(0.0379824 -0.00873642 1.16067e-21)
(0.0381728 -0.00882326 5.7474e-21)
(0.0383644 -0.0089079 -4.57746e-21)
(0.0385562 -0.00898965 1.10849e-21)
(0.0387499 -0.00906926 3.27773e-21)
(0.0389448 -0.00914641 -1.11149e-21)
(0.0391412 -0.00922126 -1.0596e-21)
(0.0393391 -0.00929366 -3.14715e-21)
(0.0395388 -0.00936322 2.0923e-21)
(0.0397396 -0.00943065 1.02876e-21)
(0.0399411 -0.00949606 -1.99701e-21)
(0.0401437 -0.00955934 1.0064e-21)
(0.0403475 -0.00962062 9.86215e-22)
(0.0405524 -0.00968017 0)
(0.0407583 -0.00973808 -9.60872e-22)
(0.0409644 -0.00979466 -9.2068e-22)
(0.0411714 -0.00984933 9.48521e-22)
(0.0413799 -0.00990225 0)
(0.0415889 -0.0099539 -1.82822e-21)
(0.0417998 -0.0100028 8.93294e-22)
(0.0420123 -0.0100501 8.11712e-24)
(0.0422256 -0.0100971 0)
(0.0424405 -0.0101433 -3.92701e-22)
(0.0426573 -0.01019 1.12833e-21)
(0.0428756 -0.0102376 -7.36809e-22)
(0.0430947 -0.0102876 0)
(0.0433146 -0.0103395 -5.02429e-22)
(0.0435364 -0.0103926 4.91802e-22)
(0.0437607 -0.010448 7.80241e-23)
(0.043987 -0.0105062 0)
(0.0442146 -0.0105682 1.46356e-22)
(0.0444432 -0.0106337 7.04875e-23)
(0.0446735 -0.0107027 -6.7855e-23)
(0.0449054 -0.0107763 4.00773e-22)
(0.045138 -0.0108563 2.62776e-22)
(0.0453709 -0.0109443 -5.06575e-22)
(0.045604 -0.0110411 5.01381e-22)
(0.0458376 -0.0111481 -4.99564e-22)
(0.046072 -0.0112674 4.86834e-22)
(0.0463079 -0.0114014 4.78683e-22)
(0.0465463 -0.0115531 -9.81159e-22)
(0.0467885 -0.011725 0)
(0.0470363 -0.0119212 -9.99813e-22)
(0.0472914 -0.0121466 5.09517e-25)
(0.0475553 -0.0124082 1.03956e-21)
(0.0478294 -0.0127128 1.07954e-21)
(0.0481163 -0.013069 -2.18381e-21)
(0.0484197 -0.0134865 9.00689e-24)
(0.0487446 -0.0139743 -1.23154e-21)
(0.0490989 -0.0145409 2.60177e-21)
(0.0494982 -0.0152064 1.39224e-21)
(0.049962 -0.0159921 -9.97041e-23)
(0.0505345 -0.0169247 1.41565e-21)
(0.0512999 -0.0180462 1.2846e-21)
(0.0523058 -0.0193112 5.0204e-21)
(0.0529181 -0.0204337 0)
(0.0516825 -0.0208096 1.64857e-21)
(0.0476179 -0.0211746 -1.58218e-21)
(0.0357935 -0.00794199 0)
(0.0359859 -0.00806429 1.42378e-21)
(0.0361797 -0.00818342 7.02848e-21)
(0.0363704 -0.00829702 -5.59359e-21)
(0.0365598 -0.00840666 -4.08903e-21)
(0.036749 -0.00851325 6.77299e-21)
(0.0369391 -0.00861684 -1.31006e-21)
(0.0371308 -0.00871726 1.3138e-21)
(0.0373244 -0.00881455 1.26725e-21)
(0.0375195 -0.00890882 4.99856e-21)
(0.0377159 -0.00900021 -5.00573e-21)
(0.0379136 -0.00908874 -4.83334e-21)
(0.0381127 -0.00917437 1.2602e-21)
(0.0383132 -0.00925713 4.71064e-21)
(0.0385149 -0.0093371 -3.50285e-21)
(0.0387177 -0.00941433 1.14838e-21)
(0.0389212 -0.00948898 -1.12979e-21)
(0.0391256 -0.00956095 -1.11174e-21)
(0.0393308 -0.00963036 3.23462e-21)
(0.039537 -0.00969718 -1.08258e-21)
(0.039744 -0.00976158 -1.04768e-21)
(0.0399519 -0.00982359 0)
(0.0401607 -0.00988327 -2.04016e-21)
(0.0403705 -0.00994078 1.03505e-21)
(0.040581 -0.00999634 1.97216e-21)
(0.0407921 -0.01005 1.92593e-21)
(0.041004 -0.0101019 -3.90275e-21)
(0.0412167 -0.0101518 1.91817e-21)
(0.0414305 -0.0101999 0)
(0.0416443 -0.0102465 1.87662e-21)
(0.0418598 -0.0102912 -5.52788e-24)
(0.0420762 -0.010335 -1.74501e-21)
(0.0422933 -0.0103786 8.2737e-22)
(0.0425115 -0.0104224 -2.01079e-21)
(0.0427308 -0.0104669 3.93079e-22)
(0.0429511 -0.0105126 0)
(0.0431724 -0.0105598 0)
(0.0433949 -0.0106081 -1.72711e-22)
(0.0436187 -0.0106577 -1.65251e-22)
(0.0438438 -0.0107093 -8.02648e-23)
(0.0440698 -0.0107633 2.42309e-24)
(0.0442965 -0.0108202 -7.44788e-23)
(0.0445237 -0.0108801 0)
(0.0447512 -0.0109438 1.18173e-24)
(0.044979 -0.0110123 0)
(0.0452067 -0.0110867 -2.64829e-22)
(0.0454345 -0.0111681 6.82459e-25)
(0.0456625 -0.0112578 7.77187e-22)
(0.0458909 -0.0113574 0)
(0.0461199 -0.0114691 5.08391e-22)
(0.0463501 -0.0115953 -5.00508e-22)
(0.0465818 -0.0117385 9.97425e-22)
(0.0468155 -0.011902 0)
(0.0470514 -0.01209 3.11636e-21)
(0.0472901 -0.0123076 4.01053e-25)
(0.047532 -0.0125611 -1.05547e-21)
(0.0477779 -0.0128579 -1.0986e-21)
(0.0480299 -0.013207 0)
(0.0482908 -0.0136188 0)
(0.0485649 -0.0141047 1.25972e-21)
(0.0488592 -0.0146783 -2.66469e-21)
(0.0491863 -0.015358 -2.82765e-21)
(0.0495736 -0.0161719 0)
(0.0500833 -0.0171584 3.54363e-21)
(0.0508039 -0.0183528 0)
(0.051636 -0.0196223 -5.53314e-21)
(0.0514874 -0.0205427 1.91406e-21)
(0.0487897 -0.0206144 2.04189e-21)
(0.0436204 -0.0209949 2.36118e-21)
(0.0355833 -0.00829595 0)
(0.0357829 -0.00841863 0)
(0.0359883 -0.00853856 1.4938e-21)
(0.0361935 -0.00865332 -5.77567e-21)
(0.0363987 -0.00876425 7.18215e-21)
(0.0366043 -0.00887219 -1.38871e-21)
(0.0368101 -0.00897703 0)
(0.037016 -0.00907857 -1.34122e-21)
(0.0372222 -0.00917667 0)
(0.0374288 -0.0092713 -2.5955e-21)
(0.0376362 -0.00936251 1.50136e-23)
(0.0378443 -0.00945038 2.54323e-21)
(0.0380532 -0.00953497 0)
(0.038263 -0.00961636 -2.41979e-21)
(0.0384738 -0.00969463 7.19376e-21)
(0.0386853 -0.0097699 -4.69838e-21)
(0.0388975 -0.00984224 5.78855e-21)
(0.0391103 -0.00991174 -1.1679e-21)
(0.0393236 -0.00997845 1.12914e-21)
(0.0395374 -0.0100425 -1.09726e-21)
(0.0397518 -0.0101039 -1.06025e-21)
(0.0399667 -0.0101627 3.23734e-21)
(0.0401822 -0.0102192 2.10823e-21)
(0.0403981 -0.0102734 0)
(0.0406146 -0.0103254 -2.02782e-21)
(0.0408316 -0.0103755 -9.63494e-22)
(0.041049 -0.0104236 3.00772e-21)
(0.0412667 -0.01047 -9.80216e-22)
(0.0414849 -0.0105148 1.92529e-21)
(0.0417028 -0.0105582 -2.89454e-21)
(0.0419223 -0.0105998 9.24039e-22)
(0.0421422 -0.0106406 -4.43686e-22)
(0.0423628 -0.0106809 0)
(0.042584 -0.0107213 4.07334e-22)
(0.042806 -0.0107619 3.91773e-22)
(0.0430288 -0.010803 0)
(0.0432524 -0.0108447 -3.64439e-22)
(0.0434766 -0.0108874 5.21646e-22)
(0.0437013 -0.0109313 -3.40929e-22)
(0.0439265 -0.0109769 1.62794e-22)
(0.0441519 -0.0110246 2.474e-24)
(0.0443773 -0.0110749 1.14177e-22)
(0.0446025 -0.0111284 -3.72192e-23)
(0.0448277 -0.0111856 -1.43304e-22)
(0.045053 -0.0112474 -1.37173e-24)
(0.0452783 -0.0113148 -8.22491e-22)
(0.0455039 -0.0113889 0)
(0.0457299 -0.0114711 -5.2662e-22)
(0.0459563 -0.011563 -8.14731e-25)
(0.0461831 -0.0116663 5.17616e-22)
(0.04641 -0.0117833 0)
(0.0466366 -0.0119165 5.29328e-22)
(0.0468622 -0.012069 -5.21577e-22)
(0.0470861 -0.0122448 -1.06464e-21)
(0.0473076 -0.0124491 0)
(0.0475266 -0.0126884 2.30382e-21)
(0.0477432 -0.0129706 -2.39392e-21)
(0.0479584 -0.0133055 2.516e-21)
(0.048174 -0.013704 7.24833e-23)
(0.0483923 -0.0141793 0)
(0.0486183 -0.0147474 1.58645e-21)
(0.0488675 -0.0154322 -1.59045e-21)
(0.0491809 -0.0162698 -1.97483e-21)
(0.049638 -0.0173046 -3.64756e-21)
(0.0502946 -0.0185388 6.47951e-21)
(0.0507579 -0.0197127 -4.40196e-21)
(0.0494506 -0.0202897 2.23357e-21)
(0.0451665 -0.0200573 -2.64349e-21)
(0.0393109 -0.0205763 -7.0316e-21)
(0.0353991 -0.0086756 -6.35023e-21)
(0.0355981 -0.0087978 7.44079e-23)
(0.0358052 -0.00891707 6.23855e-21)
(0.0360151 -0.00903106 0)
(0.0362278 -0.00914133 -1.47306e-21)
(0.0364433 -0.00924877 0)
(0.036661 -0.0093533 2.85036e-21)
(0.03688 -0.00945464 -3.87086e-23)
(0.0370997 -0.00955257 -4.18057e-21)
(0.0373197 -0.00964695 1.36952e-21)
(0.03754 -0.00973773 1.32214e-21)
(0.0377605 -0.00982494 1.31979e-21)
(0.0379813 -0.00990862 0)
(0.0382022 -0.00998882 0)
(0.0384235 -0.0100656 -1.23175e-21)
(0.0386449 -0.0101391 -1.21055e-21)
(0.0388666 -0.0102093 2.37488e-21)
(0.0390886 -0.0102764 -2.37632e-21)
(0.0393107 -0.0103404 -2.31478e-21)
(0.039533 -0.0104014 2.25536e-21)
(0.0397555 -0.0104596 -4.46746e-21)
(0.0399782 -0.0105151 5.45548e-23)
(0.040201 -0.0105679 2.2013e-21)
(0.0404239 -0.0106183 1.07229e-21)
(0.0406469 -0.0106664 2.08236e-21)
(0.0408701 -0.0107123 -2.09623e-21)
(0.0410933 -0.0107561 -2.02343e-21)
(0.0413166 -0.010798 2.04074e-21)
(0.0415399 -0.0108381 0)
(0.0417632 -0.0108764 0)
(0.0419873 -0.0109129 -2.32595e-21)
(0.0422114 -0.0109485 1.75546e-23)
(0.0424356 -0.0109836 8.72399e-22)
(0.0426599 -0.0110185 8.20759e-22)
(0.0428844 -0.0110536 -8.06138e-22)
(0.0431091 -0.011089 0)
(0.0433339 -0.0111252 3.68449e-22)
(0.0435588 -0.0111623 5.29743e-22)
(0.0437838 -0.0112008 -3.45945e-22)
(0.0440087 -0.0112409 1.29053e-25)
(0.0442337 -0.0112831 2.46819e-23)
(0.0444588 -0.0113279 -1.16295e-22)
(0.0446839 -0.0113756 -7.5106e-23)
(0.0449095 -0.0114269 -1.45527e-22)
(0.0451355 -0.0114826 7.12098e-22)
(0.045362 -0.0115434 -1.3645e-24)
(0.0455892 -0.0116104 0)
(0.0458167 -0.0116848 5.39421e-22)
(0.0460442 -0.0117678 -1.60379e-21)
(0.0462708 -0.011861 1.0607e-21)
(0.0464957 -0.0119662 5.38215e-22)
(0.0467175 -0.0120858 6.57562e-24)
(0.0469348 -0.0122229 5.6332e-22)
(0.0471463 -0.0123816 4.50133e-23)
(0.0473507 -0.0125671 -1.12327e-21)
(0.047547 -0.0127861 1.20153e-21)
(0.0477345 -0.0130467 1.29656e-21)
(0.0479125 -0.0133588 -2.6576e-21)
(0.0480804 -0.0137342 -2.49241e-23)
(0.0482378 -0.0141874 -1.58944e-21)
(0.0483906 -0.0147386 1.57143e-21)
(0.0485634 -0.0154188 -1.73328e-21)
(0.0488154 -0.0162723 3.76852e-21)
(0.0492291 -0.017338 2.24996e-21)
(0.0497442 -0.0185459 -4.22352e-21)
(0.0495101 -0.0194833 2.82693e-21)
(0.0466644 -0.0195988 8.29638e-21)
(0.0409033 -0.0191501 2.64954e-21)
(0.0349326 -0.0199842 0)
(0.0352387 -0.00908223 0)
(0.0354404 -0.00920457 -1.65691e-21)
(0.0356493 -0.00932328 3.33333e-23)
(0.0358607 -0.00943609 0)
(0.0360756 -0.00954478 0)
(0.0362948 -0.00965044 -1.5354e-21)
(0.0365177 -0.00975309 4.47038e-21)
(0.0367437 -0.00985253 -5.85707e-21)
(0.0369719 -0.00994857 2.86989e-21)
(0.0372017 -0.0100411 -1.39786e-21)
(0.0374325 -0.01013 0)
(0.0376641 -0.0102153 -1.34676e-21)
(0.0378962 -0.0102969 1.34144e-21)
(0.0381285 -0.010375 0)
(0.0383609 -0.0104494 0)
(0.0385932 -0.0105203 -1.22953e-21)
(0.0388255 -0.0105878 4.52259e-23)
(0.0390576 -0.0106518 2.45213e-21)
(0.0392895 -0.0107125 2.35097e-21)
(0.0395211 -0.01077 -2.3677e-21)
(0.0397525 -0.0108245 -1.1466e-21)
(0.0399836 -0.010876 -4.50742e-21)
(0.0402145 -0.0109247 2.39632e-23)
(0.0404449 -0.0109707 1.07732e-21)
(0.0406751 -0.0110142 -2.18135e-21)
(0.0409049 -0.0110554 1.03675e-21)
(0.0411344 -0.0110943 -2.11772e-21)
(0.0413636 -0.0111312 0)
(0.041592 -0.0111662 0)
(0.0418205 -0.011199 0)
(0.0420489 -0.0112304 4.72778e-22)
(0.0422767 -0.011261 8.98773e-22)
(0.0425041 -0.0112912 -8.8391e-22)
(0.0427311 -0.0113212 -8.31103e-22)
(0.0429579 -0.0113514 8.16555e-22)
(0.0431846 -0.0113819 0)
(0.0434113 -0.011413 -3.69811e-22)
(0.043638 -0.011445 1.83734e-22)
(0.0438648 -0.0114782 0)
(0.0440918 -0.0115129 -1.67203e-22)
(0.0443193 -0.0115495 3.01806e-23)
(0.0445473 -0.0115885 -1.97412e-23)
(0.044776 -0.0116303 7.60648e-23)
(0.0450055 -0.0116754 0)
(0.0452358 -0.0117244 2.87769e-22)
(0.0454668 -0.011778 -2.83291e-22)
(0.045698 -0.0118369 0)
(0.0459288 -0.0119019 1.36827e-24)
(0.0461584 -0.0119739 1.61895e-24)
(0.0463854 -0.0120544 -5.39703e-22)
(0.0466085 -0.0121449 0)
(0.0468259 -0.0122476 -1.15381e-24)
(0.0470358 -0.0123655 5.54494e-22)
(0.0472364 -0.0125026 1.73557e-21)
(0.0474257 -0.0126638 2.56372e-23)
(0.0476017 -0.0128558 -1.22403e-21)
(0.0477619 -0.0130865 0)
(0.047903 -0.0133658 0)
(0.048021 -0.013706 -1.4936e-21)
(0.0481148 -0.0141241 0)
(0.0481961 -0.0146463 0)
(0.0483064 -0.0153123 -7.7008e-23)
(0.0485191 -0.0161695 2.01424e-21)
(0.0488772 -0.017228 4.89316e-21)
(0.0490614 -0.0182991 -5.1075e-21)
(0.0476796 -0.01883 3.61996e-22)
(0.0430503 -0.0184428 -2.68412e-21)
(0.0361703 -0.0179529 -3.18266e-21)
(0.0306917 -0.0192911 0)
(0.0350818 -0.00951338 0)
(0.0352939 -0.00963692 1.69093e-21)
(0.0355114 -0.00975601 -4.98542e-21)
(0.0357295 -0.00986836 1.64721e-21)
(0.0359497 -0.00997587 0)
(0.0361733 -0.0100797 4.70572e-21)
(0.0364005 -0.0101801 -7.73671e-21)
(0.0366309 -0.0102769 4.55752e-23)
(0.036864 -0.01037 7.43844e-21)
(0.0370995 -0.0104594 -1.47291e-21)
(0.0373369 -0.0105449 1.44309e-21)
(0.0375758 -0.0106267 1.41456e-21)
(0.0378159 -0.0107048 -4.09955e-21)
(0.0380568 -0.0107792 5.40391e-21)
(0.0382982 -0.0108499 -2.67406e-21)
(0.0385399 -0.010917 1.28331e-21)
(0.0387815 -0.0109805 -5.10073e-21)
(0.0390229 -0.0110404 1.26968e-21)
(0.0392639 -0.0110969 -1.20973e-21)
(0.0395045 -0.0111501 1.2593e-21)
(0.0397446 -0.0112001 4.89715e-23)
(0.039984 -0.0112471 6.97728e-21)
(0.0402228 -0.011291 1.0897e-21)
(0.0404608 -0.0113322 -4.91005e-23)
(0.0406982 -0.0113708 -3.34188e-21)
(0.0409347 -0.0114069 1.08455e-21)
(0.0411705 -0.0114407 -2.11683e-21)
(0.0414055 -0.0114724 3.18998e-21)
(0.0416393 -0.0115021 0)
(0.0418731 -0.0115296 9.8706e-22)
(0.0421061 -0.0115558 -9.6941e-22)
(0.0423383 -0.0115813 -2.21503e-25)
(0.0425697 -0.0116063 4.41476e-22)
(0.0428008 -0.0116311 4.23961e-22)
(0.0430316 -0.011656 -1.21401e-21)
(0.0432623 -0.0116812 7.93008e-22)
(0.0434931 -0.011707 -5.61221e-22)
(0.0437242 -0.0117337 7.26192e-22)
(0.0439557 -0.0117616 -3.5336e-22)
(0.0441878 -0.011791 8.45088e-23)
(0.0444206 -0.0118223 0)
(0.0446544 -0.0118559 -7.84168e-23)
(0.044889 -0.0118919 7.71701e-23)
(0.0451245 -0.0119308 1.48356e-22)
(0.0453606 -0.0119729 -4.35835e-22)
(0.0455969 -0.0120185 2.84152e-22)
(0.0458327 -0.012068 2.79686e-22)
(0.0460672 -0.0121221 0)
(0.0462991 -0.0121815 1.09025e-21)
(0.046527 -0.0122471 -1.0892e-21)
(0.0467495 -0.0123204 5.51802e-22)
(0.0469645 -0.0124033 -5.3758e-22)
(0.0471699 -0.0124985 -5.36438e-22)
(0.0473632 -0.0126093 -1.14361e-21)
(0.0475415 -0.0127406 -1.19836e-21)
(0.0477011 -0.0128983 0)
(0.0478367 -0.0130897 1.32021e-21)
(0.0479415 -0.0133243 0)
(0.0480093 -0.0136158 -8.66999e-23)
(0.0480428 -0.0139856 1.68947e-21)
(0.0480684 -0.0144677 -1.75422e-21)
(0.0481463 -0.0151083 -2.01233e-21)
(0.0483395 -0.0159444 2.30858e-21)
(0.0485599 -0.0169179 2.17527e-22)
(0.0480536 -0.0176914 8.09113e-23)
(0.0450363 -0.0176576 -9.16264e-21)
(0.0386208 -0.0168418 -3.42476e-21)
(0.0311752 -0.0165446 -3.8226e-21)
(0.026667 -0.0185648 3.84398e-21)
(0.0349136 -0.00996758 0)
(0.0351406 -0.0100929 0)
(0.0353724 -0.0102131 -3.46284e-21)
(0.0356033 -0.0103258 5.13116e-21)
(0.035835 -0.0104329 1.6898e-21)
(0.0360686 -0.0105358 0)
(0.0363044 -0.0106345 0)
(0.0365425 -0.010729 -1.58808e-21)
(0.0367825 -0.0108192 3.06175e-21)
(0.0370244 -0.0109052 -2.7956e-23)
(0.037268 -0.010987 -7.39667e-21)
(0.0375131 -0.0110647 1.48656e-21)
(0.0377594 -0.0111383 -1.38825e-21)
(0.0380068 -0.0112081 2.81319e-21)
(0.038255 -0.011274 -1.37312e-21)
(0.0385036 -0.011336 0)
(0.0387524 -0.0113944 0)
(0.0390012 -0.0114492 2.51381e-23)
(0.0392497 -0.0115004 3.8162e-21)
(0.0394978 -0.0115482 -1.23294e-21)
(0.0397452 -0.0115928 1.2178e-21)
(0.039992 -0.0116342 -1.18812e-21)
(0.0402379 -0.0116726 -1.14206e-21)
(0.040483 -0.0117082 1.17373e-21)
(0.0407271 -0.0117412 1.12709e-21)
(0.0409702 -0.0117716 0)
(0.0412123 -0.0117996 0)
(0.0414533 -0.0118255 -1.61166e-21)
(0.0416931 -0.0118493 0)
(0.0419327 -0.0118711 -9.95668e-22)
(0.0421713 -0.0118917 9.78159e-22)
(0.042409 -0.0119118 4.63967e-22)
(0.042646 -0.0119315 -4.45589e-22)
(0.0428827 -0.0119511 -8.54506e-22)
(0.0431192 -0.0119708 4.11249e-22)
(0.0433558 -0.011991 3.90109e-22)
(0.0435926 -0.0120119 -3.82454e-22)
(0.0438299 -0.0120337 0)
(0.0440677 -0.0120567 0)
(0.0443063 -0.0120812 -8.43206e-23)
(0.0445457 -0.0121072 0)
(0.044786 -0.0121351 0)
(0.0450269 -0.0121648 2.29098e-22)
(0.0452684 -0.0121966 -2.98725e-22)
(0.0455101 -0.0122306 1.44464e-22)
(0.0457514 -0.0122669 -2.86375e-22)
(0.0459917 -0.0123058 0)
(0.0462301 -0.0123476 -8.24163e-22)
(0.0464655 -0.0123927 -5.16434e-24)
(0.0466965 -0.0124419 0)
(0.0469213 -0.0124961 1.08615e-21)
(0.047138 -0.0125568 -1.6479e-23)
(0.0473438 -0.012626 1.11701e-21)
(0.0475355 -0.0127064 5.67521e-22)
(0.0477085 -0.0128018 1.23466e-21)
(0.0478564 -0.012917 -1.22156e-21)
(0.0479704 -0.0130582 -1.34492e-21)
(0.0480408 -0.0132353 0)
(0.0480642 -0.0134647 1.64692e-21)
(0.0480561 -0.0137745 8.17204e-23)
(0.0480635 -0.0142062 0)
(0.04815 -0.0148026 0)
(0.0483032 -0.0155631 -2.36985e-21)
(0.0481561 -0.0163176 0)
(0.0464213 -0.0165938 0)
(0.041398 -0.0159197 3.17537e-21)
(0.033488 -0.0148593 3.56982e-21)
(0.0261135 -0.0150046 4.19468e-21)
(0.0228434 -0.0178521 0)
(0.0347309 -0.0104458 0)
(0.0349738 -0.0105727 0)
(0.0352215 -0.010694 0)
(0.0354682 -0.0108072 1.79192e-21)
(0.035715 -0.0109143 1.72881e-21)
(0.0359631 -0.0110166 -5.16772e-23)
(0.0362125 -0.0111141 -3.36011e-21)
(0.036463 -0.0112068 1.61893e-21)
(0.0367145 -0.0112947 -1.60822e-21)
(0.0369669 -0.0113777 -3.12547e-21)
(0.0372201 -0.011456 0)
(0.037474 -0.0115296 0)
(0.0377285 -0.0115989 -2.68092e-23)
(0.0379837 -0.0116637 -4.34133e-21)
(0.0382393 -0.0117244 5.59425e-21)
(0.038495 -0.011781 -5.52113e-23)
(0.0387508 -0.0118336 -2.72399e-21)
(0.0390065 -0.0118824 -1.31543e-21)
(0.0392618 -0.0119275 8.1921e-24)
(0.0395165 -0.0119691 0)
(0.0397707 -0.0120073 -2.48486e-21)
(0.040024 -0.0120423 0)
(0.0402765 -0.0120743 -2.3898e-21)
(0.040528 -0.0121035 3.49013e-21)
(0.0407784 -0.0121299 -3.48249e-21)
(0.0410278 -0.0121539 -1.13065e-21)
(0.0412762 -0.0121755 1.65338e-21)
(0.0415231 -0.0121951 -1.6398e-21)
(0.0417694 -0.0122124 1.07068e-21)
(0.042015 -0.0122282 0)
(0.0422595 -0.0122431 9.60383e-22)
(0.0425032 -0.0122575 4.42218e-22)
(0.0427463 -0.0122718 -9.05671e-22)
(0.0429891 -0.0122861 8.57876e-22)
(0.0432318 -0.0123006 -4.07157e-22)
(0.0434746 -0.0123156 4.00425e-22)
(0.0437177 -0.0123313 1.90756e-22)
(0.0439611 -0.0123478 -1.81643e-22)
(0.0442051 -0.0123654 -8.67477e-23)
(0.0444496 -0.012384 2.56588e-22)
(0.0446948 -0.0124039 2.03095e-23)
(0.0449406 -0.0124251 0)
(0.0451869 -0.0124476 -7.72299e-23)
(0.0454336 -0.0124714 1.50091e-22)
(0.0456803 -0.0124965 -1.46221e-22)
(0.0459269 -0.012523 0)
(0.0461726 -0.0125507 0)
(0.0464169 -0.0125798 -2.70947e-22)
(0.0466587 -0.0126104 5.39343e-22)
(0.0468966 -0.0126425 1.06863e-21)
(0.0471288 -0.0126766 -2.14962e-21)
(0.047353 -0.0127134 5.37071e-22)
(0.0475657 -0.0127538 -5.43929e-22)
(0.0477624 -0.0127996 -5.76256e-22)
(0.0479361 -0.0128527 1.21566e-21)
(0.0480769 -0.0129165 -1.20371e-21)
(0.0481733 -0.0129963 0)
(0.048218 -0.0131038 1.38973e-21)
(0.0482197 -0.0132607 1.24611e-22)
(0.0482157 -0.0135021 -1.63652e-21)
(0.0482638 -0.0138693 0)
(0.0483788 -0.0143805 0)
(0.0483555 -0.0149579 0)
(0.0473801 -0.0152982 -5.79324e-21)
(0.0438041 -0.0148892 -3.47447e-21)
(0.0366965 -0.0136381 -3.85018e-21)
(0.0278474 -0.0125936 8.07723e-21)
(0.0211219 -0.01341 -1.48116e-22)
(0.0190715 -0.0172068 -4.51486e-21)
(0.0345378 -0.0109511 0)
(0.034796 -0.0110789 3.83049e-21)
(0.0350596 -0.0112008 -4.75256e-21)
(0.0353222 -0.011314 2.76415e-21)
(0.035585 -0.0114206 -5.45718e-21)
(0.0358489 -0.0115219 -1.7797e-21)
(0.0361139 -0.0116181 -1.73967e-21)
(0.0363797 -0.0117089 0)
(0.0366458 -0.0117944 3.30084e-21)
(0.0369121 -0.0118746 3.17822e-21)
(0.0371784 -0.0119495 -3.18581e-21)
(0.0374447 -0.0120192 1.5515e-21)
(0.0377108 -0.012084 -1.48797e-21)
(0.0379768 -0.0121441 1.52823e-21)
(0.0382425 -0.0121995 5.78857e-21)
(0.0385078 -0.0122504 -5.91052e-23)
(0.0387725 -0.012297 -5.9077e-23)
(0.0390366 -0.0123396 -2.73499e-21)
(0.0392999 -0.0123782 -1.32035e-21)
(0.0395623 -0.0124131 -2.56308e-21)
(0.0398237 -0.0124445 2.5645e-21)
(0.0400841 -0.0124726 0)
(0.0403434 -0.0124975 -1.16409e-24)
(0.0406015 -0.0125196 0)
(0.0408584 -0.012539 1.17101e-21)
(0.041114 -0.012556 1.14945e-21)
(0.0413685 -0.0125706 -5.64451e-22)
(0.0416213 -0.0125833 0)
(0.0418737 -0.0125937 -5.28952e-22)
(0.042125 -0.012603 -1.00405e-21)
(0.0423752 -0.0126117 9.8704e-22)
(0.0426245 -0.0126201 -4.68498e-22)
(0.0428732 -0.0126283 8.84719e-22)
(0.0431214 -0.0126366 -1.72552e-21)
(0.0433695 -0.0126452 4.1726e-22)
(0.0436174 -0.0126542 0)
(0.0438656 -0.0126638 1.88362e-22)
(0.0441139 -0.0126742 2.52548e-24)
(0.0443626 -0.0126855 -2.61801e-22)
(0.0446119 -0.0126977 2.12636e-22)
(0.0448617 -0.0127108 -4.15252e-23)
(0.0451123 -0.012725 1.16984e-22)
(0.0453636 -0.01274 -7.68692e-23)
(0.0456158 -0.0127559 0)
(0.0458688 -0.0127724 0)
(0.0461224 -0.0127894 0)
(0.0463762 -0.0128065 -2.69054e-22)
(0.0466298 -0.0128234 -2.63615e-22)
(0.0468823 -0.0128396 0)
(0.0471322 -0.0128547 -5.197e-22)
(0.0473777 -0.0128682 -4.98102e-22)
(0.0476159 -0.0128799 -5.1266e-22)
(0.0478425 -0.0128893 0)
(0.0480507 -0.0128963 0)
(0.0482304 -0.0129006 1.17233e-21)
(0.0483696 -0.0129041 -1.16165e-21)
(0.0484595 -0.0129132 0)
(0.0485063 -0.0129438 -1.4139e-21)
(0.0485417 -0.0130241 1.54896e-21)
(0.0486184 -0.0131893 1.62111e-21)
(0.0487592 -0.013461 -2.03446e-21)
(0.0488239 -0.0137991 2.02341e-21)
(0.0482554 -0.0140141 0)
(0.0457581 -0.013707 2.8928e-21)
(0.0398883 -0.0125335 -1.01469e-22)
(0.0310159 -0.0109075 7.24113e-21)
(0.021943 -0.0101676 8.72332e-21)
(0.0163099 -0.0118117 -1.00316e-20)
(0.0154087 -0.0165321 4.83727e-21)
(0.0343398 -0.0114876 1.03399e-21)
(0.0346131 -0.0116156 0)
(0.0348923 -0.0117372 9.71039e-22)
(0.0351705 -0.0118495 -4.74875e-21)
(0.0354489 -0.0119548 8.39904e-21)
(0.0357286 -0.0120544 -1.87321e-21)
(0.0360093 -0.0121484 1.77399e-21)
(0.0362906 -0.0122366 -3.45886e-21)
(0.0365722 -0.0123191 1.74716e-21)
(0.0368537 -0.0123958 1.655e-21)
(0.0371347 -0.0124667 1.63442e-21)
(0.0374152 -0.0125321 -4.7262e-21)
(0.0376951 -0.0125921 1.57748e-21)
(0.0379741 -0.012647 -4.52248e-21)
(0.0382522 -0.0126968 -1.41259e-21)
(0.0385292 -0.0127417 6.3271e-23)
(0.038805 -0.0127821 2.8615e-21)
(0.0390795 -0.012818 0)
(0.0393526 -0.0128498 0)
(0.0396243 -0.0128776 1.32289e-21)
(0.0398944 -0.0129018 1.29222e-21)
(0.040163 -0.0129225 2.50035e-21)
(0.04043 -0.01294 -1.26979e-21)
(0.0406954 -0.0129545 -2.39529e-21)
(0.0409591 -0.0129664 2.4069e-21)
(0.0412214 -0.0129757 -5.80508e-22)
(0.0414819 -0.0129829 -5.68896e-22)
(0.0417409 -0.0129878 0)
(0.041999 -0.012991 5.32406e-22)
(0.0422556 -0.0129932 1.0037e-21)
(0.0425109 -0.012995 -2.55815e-23)
(0.0427651 -0.0129965 -9.45629e-22)
(0.0430184 -0.0129979 4.43995e-22)
(0.0432712 -0.0129995 0)
(0.0435236 -0.0130015 -2.03574e-22)
(0.0437758 -0.0130039 1.95041e-22)
(0.0440281 -0.013007 -1.90112e-22)
(0.0442806 -0.0130109 3.62038e-22)
(0.0445336 -0.0130157 0)
(0.0447873 -0.0130214 4.14152e-23)
(0.0450421 -0.013028 -4.03145e-23)
(0.0452982 -0.0130354 5.69874e-23)
(0.0455558 -0.0130437 -2.25161e-22)
(0.0458153 -0.0130524 4.35975e-22)
(0.0460768 -0.0130612 -2.8482e-22)
(0.0463403 -0.0130697 -2.73042e-22)
(0.0466056 -0.0130772 2.79443e-22)
(0.0468725 -0.0130829 -5.11437e-22)
(0.0471402 -0.0130858 5.15515e-22)
(0.0474075 -0.0130847 1.27557e-21)
(0.0476723 -0.0130782 1.46852e-23)
(0.0479309 -0.0130644 5.19226e-22)
(0.0481772 -0.0130409 0)
(0.0484017 -0.0130051 0)
(0.0485932 -0.012955 1.10181e-21)
(0.0487443 -0.012893 -1.7231e-21)
(0.0488618 -0.0128295 1.15302e-21)
(0.0489774 -0.012786 0)
(0.0491419 -0.0127904 -1.33092e-21)
(0.0493785 -0.0128591 -3.33292e-21)
(0.0495707 -0.0129616 1.92163e-21)
(0.049273 -0.0129638 3.02194e-22)
(0.0474684 -0.0125713 -2.25121e-21)
(0.0427188 -0.0114299 -3.05054e-22)
(0.0345417 -0.00959607 6.50118e-21)
(0.024587 -0.00788951 -7.79385e-21)
(0.0160052 -0.00771748 -4.85531e-21)
(0.011693 -0.0102738 0)
(0.0118079 -0.0157791 0)
(0.0341423 -0.0120604 -1.05491e-21)
(0.034431 -0.0121878 -5.18433e-21)
(0.0347258 -0.0123082 4.10013e-21)
(0.0350197 -0.0124188 0)
(0.0353137 -0.0125217 9.61673e-22)
(0.035609 -0.0126185 3.75017e-21)
(0.0359052 -0.0127092 -2.79758e-21)
(0.036202 -0.0127938 4.47472e-21)
(0.0364988 -0.0128721 -3.54965e-21)
(0.0367954 -0.0129443 0)
(0.0370913 -0.0130103 -8.24946e-22)
(0.0373863 -0.0130703 0)
(0.0376803 -0.0131246 -1.56544e-21)
(0.037973 -0.0131733 4.69311e-21)
(0.0382643 -0.0132166 0)
(0.038554 -0.0132548 0)
(0.0388418 -0.0132881 0)
(0.0391278 -0.0133167 2.08356e-21)
(0.0394117 -0.0133409 -2.79034e-21)
(0.0396936 -0.013361 -1.34568e-21)
(0.0399734 -0.0133772 0)
(0.040251 -0.0133899 0)
(0.0405264 -0.0133992 0)
(0.0407997 -0.0134056 3.03791e-21)
(0.0410708 -0.0134093 -3.62298e-21)
(0.0413399 -0.0134104 1.78271e-21)
(0.0416067 -0.0134095 1.15087e-21)
(0.041872 -0.0134061 -1.09211e-21)
(0.0421356 -0.0134015 1.07408e-21)
(0.0423974 -0.0133961 -5.03511e-22)
(0.0426576 -0.0133903 9.57219e-22)
(0.0429165 -0.0133845 -4.81105e-22)
(0.0431743 -0.0133787 -8.88114e-22)
(0.0434315 -0.0133732 -4.21484e-22)
(0.0436882 -0.0133683 2.05304e-22)
(0.0439448 -0.0133641 -1.96761e-22)
(0.0442015 -0.0133607 0)
(0.0444588 -0.0133583 -3.98416e-24)
(0.0447169 -0.013357 -8.50273e-23)
(0.0449763 -0.0133567 1.14154e-24)
(0.0452374 -0.0133575 3.97309e-23)
(0.0455007 -0.0133592 -9.52163e-23)