/*--------------------------------*- C++ -*----------------------------------*\
| =========                 |                                                 |
| \\      /  F ield         | OpenFOAM: The Open Source CFD Toolbox           |
|  \\    /   O peration     | Version:  2312                                  |
|   \\  /    A nd           | Website:  www.openfoam.com                      |
|    \\/     M anipulation  |                                                 |
\*---------------------------------------------------------------------------*/
FoamFile
{
    version     2.0;
    format      ascii;
    arch        "LSB;label=32;scalar=64";
    class       volScalarField;
    location    "1000";
    object      epsilon;
}
// * * * * * * * * * * * * * * * * * * * * * * * * * * * * * * * * * * * * * //

dimensions      [0 2 -3 0 0 0 0];

internalField   nonuniform List<scalar> 
76025
(
0.000247144
0.000246359
0.000245534
0.000244884
0.000244234
0.000243814
0.000243228
0.000242643
0.000241793
0.000240953
0.000240145
0.000239319
0.000238498
0.000237613
0.00023689
0.000236088
0.000235351
0.000234715
0.000233971
0.000233347
0.000232703
0.000232126
0.000231577
0.000231142
0.000230787
0.000230327
0.000230178
0.000229877
0.000229692
0.000229664
0.00022949
0.000229325
0.000229498
0.000229561
0.000229663
0.000229835
0.00023005
0.00023068
0.000231115
0.000231682
0.000232601
0.000233541
0.000235439
0.000236947
0.000238866
0.000240542
0.000242835
0.000245131
0.000247123
0.000249657
0.000251587
0.000254192
0.000255702
0.000258485
0.000261305
0.000264088
0.000270473
0.000272664
0.000273492
0.00027681
0.000287038
0.000295722
0.000315635
0.000328907
0.00036038
0.000382499
0.000435241
0.000477968
0.000545173
0.000249603
0.000248873
0.000248036
0.000247259
0.00024642
0.000245788
0.000245188
0.00024468
0.000244161
0.000243534
0.000242956
0.000242256
0.000241625
0.000240885
0.000240204
0.00023942
0.000238672
0.000237982
0.00023738
0.000236821
0.000236373
0.000235932
0.000235583
0.000235261
0.000235068
0.000234818
0.000234792
0.000234801
0.000234715
0.000234827
0.000234855
0.000235466
0.000235749
0.000235725
0.000236904
0.000237438
0.000237098
0.000237133
0.000237646
0.000238421
0.000239474
0.000240843
0.000242364
0.000243976
0.000245727
0.000247789
0.000249485
0.000254533
0.000256698
0.000259233
0.000260783
0.000262949
0.000264178
0.000263063
0.000264554
0.000265864
0.000268543
0.000271454
0.000280045
0.000286988
0.000302826
0.000313608
0.000337727
0.000354765
0.000393371
0.000422081
0.000488375
0.000537632
0.000692565
0.000251828
0.000251418
0.000250842
0.000250237
0.000249484
0.00024878
0.000248079
0.000247466
0.000246956
0.000246397
0.000245901
0.000245361
0.000244817
0.000244211
0.000243681
0.000243134
0.000242622
0.000242023
0.000241487
0.000240907
0.000240425
0.00023997
0.000239632
0.000239268
0.000239186
0.000239179
0.000238941
0.000239321
0.000239251
0.000239237
0.000239566
0.000239735
0.000240912
0.000241432
0.000241407
0.000243171
0.000243965
0.000244973
0.000245907
0.000247066
0.000247103
0.000247946
0.000248283
0.000249213
0.000251144
0.00025325
0.000254593
0.000259325
0.000261079
0.000263378
0.000260138
0.000265188
0.000262605
0.000262636
0.000266576
0.000270154
0.000278896
0.000284643
0.000297473
0.000305827
0.000324323
0.000336782
0.000365039
0.000384884
0.000429254
0.000462449
0.000539596
0.000599328
0.000779854
0.000254091
0.000253948
0.00025368
0.000253365
0.000252906
0.000252377
0.000251771
0.000251153
0.000250574
0.000249999
0.000249449
0.000248924
0.000248417
0.000247913
0.000247475
0.000247048
0.000246637
0.00024624
0.000245895
0.000245516
0.000245143
0.000244771
0.000244455
0.00024403
0.000243897
0.000243859
0.000243931
0.000243916
0.000244685
0.000245035
0.000245401
0.000245218
0.000246621
0.000247251
0.000247178
0.000249279
0.000250196
0.0002499
0.000250739
0.000251716
0.000253236
0.000253781
0.000257121
0.000258513
0.000257517
0.000257455
0.000259127
0.00026153
0.000262968
0.000268512
0.00027093
0.000269979
0.000271422
0.00027457
0.000280118
0.00028566
0.000294549
0.000302202
0.000315873
0.000326496
0.00034768
0.000362462
0.000396356
0.000419764
0.000472685
0.000513576
0.000609369
0.000683164
0.000911019
0.000257091
0.000256932
0.000256801
0.000256698
0.000256533
0.000256304
0.000255985
0.000255582
0.000255134
0.00025463
0.000254115
0.000253595
0.000253112
0.000252649
0.000252242
0.000251861
0.000251501
0.000251176
0.000250921
0.000250619
0.000250329
0.000250026
0.000249716
0.000249653
0.000249528
0.00025011
0.00025026
0.000250137
0.000250334
0.000250677
0.00025082
0.000252278
0.000252982
0.000253916
0.000254533
0.000254797
0.000254919
0.000257746
0.000256146
0.000259198
0.000257692
0.000256886
0.000257106
0.000258097
0.000259444
0.000261186
0.000263093
0.000264922
0.00026724
0.000269766
0.000273241
0.000277183
0.000282377
0.000287844
0.000295042
0.000302518
0.000312763
0.000323205
0.000338219
0.000352896
0.00037608
0.000396114
0.000435028
0.000463497
0.000528987
0.000579698
0.000698324
0.000791024
0.00107228
0.000261536
0.000261198
0.00026097
0.000260779
0.000260813
0.000260637
0.000260557
0.000260317
0.000260053
0.000259769
0.000259444
0.000259089
0.000258735
0.000258407
0.00025806
0.00025785
0.000257529
0.000257345
0.000256951
0.00025732
0.000257439
0.000256964
0.000257311
0.000257137
0.000257193
0.000257136
0.000258118
0.000258423
0.000258147
0.000259479
0.000260003
0.000260121
0.000260627
0.000261502
0.000262697
0.000263196
0.000266102
0.000265042
0.000268084
0.000266821
0.000266754
0.000268472
0.000270211
0.000273914
0.000275935
0.000281921
0.00028444
0.00028235
0.000282452
0.000284633
0.000288512
0.000293139
0.000299264
0.000305852
0.000314498
0.000323614
0.000335791
0.000348671
0.000366053
0.000384775
0.000410751
0.00043784
0.000481382
0.000519308
0.000600296
0.000663521
0.000815778
0.000934782
0.00127032
0.000267649
0.000267196
0.000266799
0.000266519
0.000266237
0.000266433
0.000266511
0.000266569
0.000266255
0.000265896
0.000265663
0.000265397
0.000265101
0.000265324
0.000265111
0.000264911
0.000265467
0.000265581
0.000265672
0.000264944
0.000265351
0.000265505
0.000265249
0.00026542
0.000265443
0.000266586
0.000267128
0.000267627
0.000267153
0.000269039
0.000269858
0.00026965
0.000272218
0.000273158
0.000272068
0.000272088
0.000272693
0.000274098
0.000276109
0.000278475
0.000281326
0.000282738
0.000288027
0.000285732
0.000291555
0.000289562
0.000289974
0.000292223
0.000295902
0.000300322
0.000305935
0.000312016
0.000319719
0.000327814
0.000338424
0.000349376
0.000364258
0.000379622
0.000400786
0.000423653
0.000454419
0.000490343
0.000539395
0.00059595
0.000689726
0.000777526
0.000973456
0.00112696
0.00148619
0.000275473
0.000275092
0.00027468
0.000274353
0.000273965
0.000274169
0.000273798
0.000274301
0.000274396
0.000274168
0.000273923
0.000274506
0.000274185
0.000274707
0.000274171
0.00027463
0.000274479
0.000274451
0.000274747
0.000274977
0.000274977
0.000276241
0.000276745
0.000277068
0.000276675
0.000278331
0.00027895
0.000278606
0.000280736
0.000281552
0.000280815
0.000281734
0.000281997
0.0002856
0.000286912
0.000288477
0.000285775
0.000289972
0.000287968
0.00028765
0.000288628
0.00029024
0.000292462
0.000294902
0.000297911
0.00030129
0.000305356
0.000309872
0.000315269
0.000321082
0.000328194
0.000335666
0.000345202
0.000354938
0.000368101
0.000381029
0.000399826
0.000417503
0.000445168
0.000470931
0.000512629
0.000554211
0.000620628
0.000692545
0.000814327
0.000932619
0.00118641
0.00136599
0.0018859
0.000285626
0.000285243
0.000284631
0.000284289
0.000283851
0.000283852
0.00028396
0.000283797
0.000283664
0.000284435
0.000284618
0.000284284
0.000285226
0.000285543
0.000285037
0.000284968
0.000285011
0.000285941
0.000286377
0.000286966
0.000287444
0.000288195
0.000288183
0.000290198
0.000290979
0.000291846
0.000292303
0.000291848
0.000292074
0.00029387
0.000295378
0.000296207
0.000300356
0.000302076
0.000304038
0.000300656
0.00030525
0.000302573
0.000301641
0.000302425
0.000304329
0.000306933
0.000310085
0.000313641
0.000317753
0.000322282
0.000327562
0.000333274
0.000340043
0.000347203
0.000356011
0.000365126
0.000376906
0.000388746
0.000405056
0.000420754
0.00044435
0.000465675
0.000501494
0.000532208
0.000588702
0.000639104
0.000730576
0.000825392
0.000980301
0.00115533
0.00144389
0.00169401
0.00228255
0.000298137
0.000298581
0.000298336
0.000297348
0.000297459
0.000296827
0.000297105
0.000296893
0.000296818
0.000297173
0.000297204
0.000298202
0.000297892
0.000298636
0.000299013
0.000299282
0.000298674
0.000298738
0.000299378
0.000300499
0.000301592
0.000301922
0.000304177
0.000305087
0.000304188
0.000305387
0.000305614
0.000309178
0.000310422
0.000312165
0.000309707
0.000313742
0.000311963
0.000311211
0.00031208
0.000313141
0.000314971
0.000316999
0.000319404
0.000322222
0.000325499
0.000329218
0.000333413
0.000338025
0.000343264
0.000348965
0.000355568
0.000362649
0.000371078
0.000379892
0.000390856
0.000402059
0.00041675
0.000431381
0.000451783
0.000471453
0.000501209
0.000528442
0.000574792
0.000614315
0.000691317
0.000754771
0.000886042
0.00100252
0.0012188
0.00144441
0.00177462
0.00218343
0.00263276
0.000313058
0.000313322
0.00031309
0.000313303
0.000314238
0.000314426
0.000314208
0.000314162
0.000314275
0.000314494
0.00031449
0.000315942
0.000315044
0.000316418
0.000317225
0.000317783
0.000318478
0.0003183
0.000317645
0.000319211
0.000319929
0.00032018
0.000323312
0.000324416
0.000324816
0.000324953
0.00032912
0.000330653
0.000332612
0.000329456
0.000333768
0.000331257
0.000330296
0.000331112
0.000332794
0.000335119
0.000337902
0.000341057
0.000344598
0.000348518
0.000352879
0.000357707
0.000363065
0.000368908
0.000375492
0.000382637
0.000390887
0.000399712
0.000410261
0.000421252
0.000435036
0.000449051
0.000467642
0.000486149
0.000512143
0.0005377
0.000575869
0.00061293
0.000673079
0.000729384
0.000831716
0.000920821
0.00110169
0.00124641
0.00155755
0.00178823
0.00229174
0.00261794
0.00341788
0.000333949
0.000332842
0.000333455
0.000332995
0.000334273
0.000333774
0.000333582
0.000333691
0.000334599
0.000335032
0.000335652
0.000336168
0.000337851
0.000336716
0.000337961
0.00033757
0.000338177
0.00033878
0.000339892
0.000341366
0.000343043
0.000345446
0.000346742
0.000351612
0.000353141
0.000354916
0.000351183
0.000355747
0.000352793
0.000351366
0.000352101
0.000353564
0.000355609
0.000358184
0.000361201
0.000364643
0.000368477
0.000372695
0.000377333
0.000382405
0.000387987
0.000394129
0.000400905
0.000408295
0.000416588
0.00042561
0.000436002
0.000447166
0.000460512
0.000474518
0.000492106
0.000510127
0.000534165
0.000558352
0.000592542
0.000626976
0.000677965
0.000730348
0.000810876
0.000894541
0.00102889
0.00116335
0.00139296
0.00160037
0.00198285
0.00228119
0.00287565
0.00327736
0.0041173
0.000356812
0.000357346
0.000358203
0.000359061
0.000360086
0.000361012
0.000363225
0.000363831
0.000364486
0.000365436
0.000365858
0.000364946
0.000367301
0.000367949
0.000368079
0.000367808
0.000371372
0.000372421
0.000373793
0.000370622
0.000374003
0.000371677
0.000370587
0.000371397
0.000372318
0.000373909
0.000375201
0.000377141
0.000379099
0.000381334
0.000383992
0.000387047
0.000390484
0.000394307
0.000398513
0.00040314
0.000408172
0.000413648
0.000419623
0.00042613
0.000433261
0.000441101
0.000449733
0.00045918
0.000469756
0.000481351
0.00049465
0.000509129
0.000526332
0.00054476
0.000567738
0.000591889
0.000623923
0.000657092
0.000703864
0.000752302
0.000823655
0.000898939
0.00101157
0.00113291
0.00131354
0.00150697
0.00179465
0.00208474
0.0025315
0.0029234
0.00359885
0.00404913
0.00513218
0.000390508
0.00038899
0.000388982
0.00038887
0.000389228
0.000390103
0.000392196
0.000395948
0.000396134
0.000397424
0.000400287
0.000400449
0.000402396
0.000403932
0.000400514
0.000403884
0.00040139
0.000400032
0.000400297
0.000400713
0.000401842
0.000403073
0.000404529
0.00040639
0.000408527
0.000410988
0.000413704
0.000416724
0.000420041
0.000423676
0.000427656
0.000431996
0.000436728
0.000441863
0.000447451
0.000453507
0.000460058
0.000467161
0.000474897
0.000483319
0.000492549
0.000502713
0.000513913
0.000526249
0.000540057
0.000555371
0.000572885
0.000592325
0.000615266
0.000640592
0.000671778
0.000705914
0.000750356
0.000798502
0.000864836
0.000936051
0.00103845
0.00114776
0.00130756
0.00147736
0.00172319
0.00198141
0.00234645
0.00271967
0.00323678
0.00374096
0.00443911
0.0050718
0.00598797
0.00043336
0.00043337
0.000433559
0.000434949
0.00043768
0.000437508
0.000435836
0.00043999
0.000441309
0.000439011
0.000438306
0.000438471
0.000438725
0.000439561
0.000440024
0.000441063
0.000442064
0.000443244
0.000444773
0.000446583
0.00044869
0.000451074
0.000453732
0.000456685
0.000459937
0.000463501
0.000467386
0.000471612
0.000476195
0.000481159
0.000486529
0.00049234
0.000498618
0.000505415
0.000512766
0.000520706
0.000529302
0.000538636
0.000548822
0.000559948
0.000572187
0.000585727
0.000600717
0.000617376
0.000636106
0.000657163
0.000681302
0.000708674
0.000740869
0.000777578
0.00082217
0.000872995
0.000937399
0.00101027
0.00110656
0.00121359
0.00136007
0.00151837
0.00173999
0.0019711
0.00229763
0.00262377
0.00308605
0.00352258
0.00414974
0.00470025
0.00551318
0.0061859
0.00716691
0.000484776
0.000483689
0.000484436
0.000485315
0.000487085
0.000488619
0.000489582
0.000490797
0.000492045
0.000492997
0.000494048
0.000495294
0.000496648
0.000498203
0.000499902
0.000501823
0.000503965
0.00050635
0.000509004
0.000511938
0.000515162
0.000518689
0.000522531
0.000526705
0.00053123
0.000536128
0.000541422
0.000547139
0.000553312
0.000559972
0.000567167
0.00057493
0.000583334
0.000592417
0.000602237
0.000612883
0.000624463
0.000637106
0.000650983
0.000666246
0.000683164
0.000702027
0.000723095
0.000746773
0.000773629
0.000804249
0.000839568
0.000880331
0.000928273
0.000984064
0.00105113
0.00112925
0.00122525
0.00133636
0.00147643
0.00163498
0.00183972
0.0020629
0.00235788
0.00266352
0.00307611
0.00347843
0.00403532
0.00453647
0.00527061
0.0058463
0.00681631
0.00740209
0.00879926
0.000570478
0.000571574
0.000567215
0.000570643
0.000567686
0.000566647
0.0005672
0.000568534
0.000570298
0.000572297
0.000574484
0.000576852
0.000579393
0.000582125
0.000585062
0.00058823
0.000591655
0.000595359
0.000599365
0.000603696
0.000608371
0.000613413
0.000618847
0.000624701
0.000631004
0.000637793
0.000645106
0.000652988
0.000661489
0.000670668
0.000680583
0.000691333
0.000702957
0.000715563
0.000729279
0.000744258
0.000760679
0.000778763
0.000798784
0.000821018
0.000845906
0.000873908
0.000905496
0.000941366
0.000982383
0.00102956
0.00108417
0.00114761
0.0012219
0.0013087
0.00141136
0.00153116
0.00167424
0.00183926
0.00203838
0.00226341
0.00253947
0.00283925
0.00321562
0.00360159
0.00410108
0.00458005
0.00522151
0.00579275
0.00660004
0.00724357
0.00827245
0.00894541
0.0103189
0.000667679
0.000669237
0.000670086
0.000671709
0.000673289
0.00067516
0.000677429
0.00068006
0.000683002
0.000686216
0.000689683
0.000693401
0.000697374
0.000701617
0.000706152
0.000711001
0.000716194
0.000721759
0.000727728
0.000734133
0.000741009
0.000748393
0.000756326
0.000764854
0.000774027
0.000783904
0.000794548
0.000806039
0.000818448
0.000831904
0.000846466
0.000862269
0.000879476
0.000898274
0.000918889
0.000941584
0.000966671
0.000994525
0.00102559
0.00106036
0.00109953
0.0011438
0.00119395
0.00125105
0.00131634
0.00139127
0.0014775
0.001577
0.00169201
0.0018249
0.00197887
0.00215612
0.00236169
0.0025956
0.0028677
0.00317005
0.0035254
0.00390613
0.00436565
0.00482805
0.00541189
0.00595422
0.00667793
0.00729993
0.00818331
0.00887444
0.00999721
0.0106997
0.0124875
0.000823291
0.000826134
0.000828922
0.000832042
0.000835414
0.00083904
0.000842957
0.00084719
0.000851751
0.00085665
0.0008619
0.000867517
0.000873527
0.000879956
0.000886838
0.00089421
0.000902114
0.000910595
0.000919702
0.00092949
0.000940017
0.000951348
0.000963556
0.000976716
0.000990924
0.00100627
0.00102288
0.00104087
0.00106035
0.00108151
0.00110457
0.00112975
0.00115733
0.00118763
0.00122102
0.00125794
0.00129886
0.00134439
0.00139519
0.001452
0.00151582
0.0015876
0.00166843
0.00175974
0.00186306
0.0019802
0.00211307
0.00226392
0.00243505
0.00262904
0.00284867
0.00309634
0.00337579
0.00368755
0.00403874
0.00442264
0.00485825
0.00531607
0.00585195
0.00637972
0.00703895
0.00762647
0.00842969
0.00908549
0.0100442
0.0108144
0.0119792
0.0129785
0.0145663
0.00106805
0.00107272
0.00107748
0.00108271
0.0010883
0.00109425
0.00110061
0.00110742
0.00111473
0.00112258
0.00113101
0.00114008
0.00114982
0.00116029
0.00117156
0.0011837
0.00119677
0.00121084
0.001226
0.00124235
0.00125997
0.00127896
0.00129947
0.00132156
0.0013454
0.00137115
0.00139903
0.00142924
0.00146203
0.0014977
0.00153654
0.00157894
0.00162529
0.00167608
0.00173183
0.00179315
0.00186074
0.00193538
0.00201796
0.00210946
0.00221111
0.00232406
0.00244961
0.0025894
0.00274513
0.00291869
0.00311198
0.00332716
0.00356623
0.0038315
0.00412495
0.00444866
0.00480482
0.00519403
0.00562072
0.00607947
0.00658484
0.00711087
0.00770823
0.00828648
0.00901003
0.00962216
0.010523
0.0111705
0.0123061
0.0130501
0.0146296
0.0155049
0.0185667
0.00150638
0.00151596
0.00152566
0.00153596
0.00154674
0.00155801
0.00156983
0.00158229
0.00159547
0.00160944
0.00162428
0.00164007
0.0016569
0.00167487
0.00169404
0.00171452
0.00173645
0.00175994
0.00178516
0.00181222
0.00184149
0.00187315
0.00190736
0.00194431
0.0019842
0.00202728
0.0020738
0.00212406
0.00217839
0.00223718
0.00230085
0.00236989
0.00244484
0.00252633
0.00261503
0.00271173
0.00281727
0.00293262
0.00305879
0.00319696
0.00334843
0.0035144
0.0036962
0.00389545
0.00411369
0.00435255
0.00461359
0.00489847
0.00520863
0.00554561
0.00591057
0.00630488
0.00672936
0.00718489
0.00767291
0.00819145
0.00874799
0.00932701
0.00996646
0.0105889
0.0113605
0.0120087
0.0130177
0.0136958
0.0150613
0.0160111
0.0178596
0.019561
0.0228248
0.00240248
0.00242087
0.00243936
0.00245859
0.0024784
0.00249877
0.00251982
0.00254167
0.00256443
0.00258823
0.00261317
0.00263938
0.00266701
0.0026962
0.00272702
0.00276
0.00279529
0.00283306
0.00287348
0.00291679
0.00296299
0.00301237
0.00306521
0.00312182
0.00318251
0.00324764
0.00331758
0.00339277
0.00347365
0.00356073
0.00365455
0.00375575
0.00386497
0.00398298
0.00411056
0.00424861
0.00439807
0.00455998
0.00473537
0.00492542
0.00513133
0.00535406
0.00559477
0.00585475
0.00613514
0.00643703
0.00676143
0.00710916
0.00748114
0.00787777
0.00830003
0.0087479
0.00922247
0.00972407
0.0102536
0.0108122
0.0114016
0.0120219
0.0126893
0.0133689
0.014188
0.0149353
0.0160994
0.0169202
0.0187831
0.0199854
0.0228508
0.0254672
0.0296764
0.00423081
0.00426046
0.00429041
0.00432138
0.00435301
0.00438528
0.00441828
0.00445214
0.00448698
0.00452295
0.00456026
0.00459906
0.00463951
0.00468179
0.00472617
0.00477251
0.00482108
0.0048722
0.00492616
0.00498334
0.00504406
0.00510871
0.00517766
0.00525131
0.0053301
0.0054145
0.00550498
0.0056021
0.0057064
0.00581853
0.00593908
0.00606882
0.0062084
0.00635874
0.00652058
0.00669497
0.00688284
0.00708518
0.007303
0.00753738
0.00778923
0.00805919
0.008348
0.00865631
0.00898461
0.00933322
0.0097026
0.0100927
0.0105044
0.0109368
0.0113924
0.0118687
0.0123714
0.0128965
0.0134532
0.014037
0.01466
0.0153216
0.0160422
0.0168229
0.0177653
0.0187541
0.020207
0.0215371
0.0241261
0.0260736
0.0310743
0.0354202
0.0436242
0.00774825
0.00778404
0.00781914
0.00785466
0.00789022
0.00792618
0.00796226
0.00799878
0.00803569
0.00807345
0.00811279
0.00815344
0.00819551
0.00823918
0.00828469
0.0083323
0.00838232
0.00843506
0.00849089
0.00855019
0.00861335
0.00868084
0.00875304
0.00883046
0.00891367
0.00900309
0.00909936
0.009203
0.00931451
0.00943467
0.00956389
0.00970343
0.00985344
0.0100156
0.0101896
0.0103778
0.01058
0.0107975
0.011032
0.0112848
0.011556
0.0118457
0.0121541
0.0124812
0.0128274
0.0131926
0.0135772
0.0139811
0.0144059
0.0148502
0.0153202
0.0158094
0.0163343
0.01688
0.0174783
0.018104
0.0188063
0.019555
0.0204397
0.0214524
0.0227417
0.0242279
0.0263785
0.0286343
0.0326297
0.0363284
0.044782
0.0508289
0.0655245
0.013637
0.0136558
0.0136739
0.0136929
0.0137121
0.0137318
0.0137515
0.0137715
0.0137919
0.0138123
0.0138337
0.0138554
0.013878
0.0139018
0.0139271
0.0139543
0.0139838
0.0140158
0.0140508
0.0140886
0.0141298
0.0141755
0.0142234
0.0142772
0.0143386
0.0144055
0.0144824
0.0145652
0.0146551
0.01475
0.0148539
0.0149703
0.0150998
0.0152443
0.0154027
0.0155778
0.0157684
0.0159763
0.0162029
0.0164486
0.0167136
0.0169974
0.0173002
0.0176214
0.0179615
0.0183209
0.018701
0.0191031
0.0195311
0.0199848
0.0204761
0.0209966
0.0215776
0.022191
0.0229014
0.0236522
0.0245431
0.0255374
0.0268245
0.0283918
0.0303913
0.0329111
0.0361878
0.0404072
0.046595
0.0542829
0.0665581
0.0767267
0.0969904
0.0229041
0.0228972
0.0228906
0.0228859
0.0228819
0.0228783
0.0228753
0.022873
0.0228712
0.0228687
0.0228653
0.0228616
0.0228578
0.0228543
0.0228512
0.0228487
0.0228463
0.022844
0.0228403
0.0228292
0.0228168
0.0227975
0.0226931
0.0226551
0.022661
0.0226527
0.0227601
0.0227952
0.0228092
0.022704
0.0226442
0.0226401
0.0226784
0.0227409
0.0228274
0.0229375
0.0230713
0.0232257
0.0233985
0.0235886
0.0237955
0.0240204
0.0242679
0.0245418
0.0248481
0.0251918
0.0255785
0.0260138
0.0265049
0.0270538
0.0276731
0.0283632
0.0291464
0.0300112
0.0310012
0.0320712
0.0333203
0.0348681
0.0370016
0.0395756
0.0429269
0.0470963
0.0529689
0.0614129
0.0731332
0.0890866
0.108268
0.129469
0.156425
0.0356887
0.0356493
0.0356084
0.0355638
0.0355197
0.0354768
0.035435
0.0353967
0.035358
0.035323
0.0352891
0.0352554
0.0352221
0.0351889
0.0351553
0.0351215
0.0350873
0.035053
0.0350185
0.034982
0.0349455
0.0349101
0.0348731
0.0348411
0.0348144
0.0347915
0.0347758
0.0347609
0.0347467
0.0347292
0.0347013
0.0345647
0.0345367
0.0342762
0.0340961
0.0340549
0.0340963
0.034191
0.0343314
0.0345127
0.0347371
0.0350133
0.0353587
0.0357768
0.0362777
0.0368591
0.037524
0.0382665
0.0390854
0.0399664
0.040903
0.0418927
0.0429183
0.0439845
0.0450852
0.0462636
0.047523
0.0503503
0.0553744
0.0606707
0.0682206
0.0781079
0.0937476
0.114343
0.141983
0.175851
0.210435
0.250234
0.275647
0.0636693
0.0636425
0.0636071
0.0633045
0.0631437
0.0631078
0.0630523
0.0632153
0.0631349
0.0632831
0.0633254
0.0633289
0.0633385
0.0633301
0.063288
0.0632285
0.0631618
0.063084
0.0630002
0.0629088
0.0628098
0.062705
0.0625888
0.06248
0.0623467
0.0621896
0.0620141
0.061824
0.0616203
0.0614027
0.0611695
0.0609133
0.0606406
0.0603504
0.0600478
0.0597375
0.0594215
0.0591155
0.0589226
0.0588114
0.0584789
0.0583144
0.0584836
0.0588923
0.0595086
0.0602796
0.0611877
0.0622289
0.0633718
0.0646846
0.0661054
0.0678421
0.0697673
0.0721606
0.0748165
0.0781976
0.0825757
0.0869707
0.0919866
0.100114
0.113776
0.131796
0.158972
0.191111
0.231782
0.273191
0.311646
0.344902
0.354039
0.194861
0.194819
0.196984
0.197733
0.197579
0.198135
0.198169
0.200305
0.200963
0.201728
0.202177
0.200957
0.202862
0.203241
0.202222
0.201827
0.202175
0.202181
0.202551
0.202734
0.202937
0.203387
0.20311
0.204765
0.203833
0.202589
0.20157
0.200671
0.199884
0.199114
0.19836
0.197589
0.196787
0.195956
0.195076
0.194152
0.193159
0.192092
0.190943
0.189653
0.188221
0.186566
0.184687
0.182514
0.180044
0.177207
0.173976
0.170299
0.166133
0.161462
0.156229
0.15045
0.144013
0.136921
0.129044
0.120455
0.111136
0.101372
0.0914823
0.0817979
0.0729954
0.0654045
0.0602301
0.0577787
0.0592174
0.0632562
0.0703197
0.0821654
0.0928515
0.000260585
0.000260912
0.0002612
0.000261386
0.000261579
0.000261699
0.000261868
0.00026228
0.000262885
0.000263518
0.000264087
0.000265184
0.000265852
0.000266
0.000265863
0.000265619
0.000266229
0.000266367
0.000266233
0.000265954
0.000266506
0.000267115
0.000267062
0.000267611
0.000267506
0.000267422
0.000268052
0.000268301
0.000268072
0.000268102
0.000268997
0.000269566
0.000269569
0.000268007
0.000267305
0.000266568
0.000266479
0.000265944
0.000264925
0.000263977
0.000263185
0.000262703
0.000261938
0.000260256
0.000259386
0.000258034
0.000256935
0.000255918
0.000254556
0.000253439
0.000252815
0.000252165
0.000251671
0.000251324
0.000250853
0.00025034
0.000249564
0.000248685
0.0002479
0.000262296
0.000262561
0.00026274
0.000262964
0.000263163
0.000263429
0.000263882
0.00026451
0.00026523
0.00026584
0.000266184
0.000266602
0.000266633
0.000266656
0.000266431
0.000266574
0.000266989
0.000267003
0.000266672
0.000266675
0.000267564
0.000267792
0.000267714
0.000268111
0.000267909
0.000267893
0.000268505
0.000268761
0.000268437
0.000268436
0.000269321
0.000269867
0.000269844
0.000268478
0.000267731
0.000266965
0.000266768
0.000266357
0.000265466
0.000264466
0.000263679
0.00026316
0.000262677
0.000261428
0.000260371
0.000259314
0.000258138
0.000257186
0.000256273
0.000254819
0.000253865
0.000253091
0.000252471
0.000252023
0.00025172
0.000251435
0.000251132
0.000250669
0.000250183
0.000264782
0.00026497
0.000265151
0.00026545
0.000265809
0.000266298
0.000266795
0.000266953
0.000267522
0.000267626
0.000267885
0.000267925
0.000267867
0.000267941
0.000267824
0.000268167
0.000268308
0.000268193
0.000267801
0.000268418
0.000268984
0.000269054
0.000268979
0.000269138
0.000268851
0.000268971
0.000269553
0.000269728
0.000269429
0.00026937
0.000270325
0.000270849
0.000270871
0.000269575
0.000268736
0.000267934
0.000267759
0.000267345
0.000266648
0.000265569
0.000264647
0.000264134
0.00026378
0.000263054
0.000261919
0.000260968
0.000259909
0.000258941
0.000258179
0.000257156
0.000256006
0.000254974
0.000254136
0.000253469
0.000253027
0.000252691
0.000252496
0.000252253
0.000252051
0.000268253
0.000268576
0.000268904
0.000269276
0.000269408
0.000269793
0.000269849
0.000270261
0.000270319
0.000270414
0.000270341
0.000270463
0.000270321
0.000270253
0.000270103
0.000270362
0.000270385
0.000270214
0.000270053
0.000270893
0.000271158
0.000271126
0.000271037
0.000270984
0.000270677
0.000270986
0.000271371
0.000271544
0.000271135
0.000271055
0.000271948
0.000272369
0.00027228
0.000271353
0.000270485
0.000269655
0.000269277
0.00026898
0.000268444
0.000267483
0.000266486
0.000265806
0.000265467
0.000265023
0.000264172
0.000263254
0.00026229
0.00026135
0.000260587
0.000259827
0.000258946
0.000257968
0.000257034
0.000256184
0.000255506
0.000254953
0.000254607
0.000254306
0.000254126
0.00027284
0.000272728
0.00027283
0.000273025
0.000273104
0.000273481
0.000273429
0.000273553
0.000273744
0.000273756
0.000273661
0.000273852
0.000273678
0.000273604
0.000273556
0.000273551
0.000273462
0.000273192
0.000273692
0.000274008
0.00027411
0.000274075
0.000273793
0.000273593
0.000273343
0.000273688
0.000273963
0.000274109
0.000273636
0.000273552
0.000274397
0.000274744
0.000274653
0.000273865
0.000272984
0.000272145
0.000271701
0.00027138
0.000270932
0.000270161
0.00026917
0.000268338
0.000267892
0.000267577
0.000267067
0.000266293
0.00026543
0.000264549
0.000263764
0.000263074
0.000262404
0.000261651
0.000260849
0.000260018
0.000259265
0.000258555
0.000258025
0.000257537
0.000257224
0.000278056
0.00027818
0.000278494
0.000278142
0.000278044
0.000278176
0.000278214
0.000278171
0.000278245
0.000278268
0.000278263
0.000278302
0.000278005
0.000277763
0.000277816
0.000277903
0.000277572
0.000277708
0.000277896
0.000278054
0.000278079
0.000277974
0.000277522
0.000277215
0.000277029
0.000277365
0.000277586
0.000277681
0.000277151
0.000277069
0.000277851
0.000278126
0.000278028
0.000277364
0.000276482
0.000275634
0.000275129
0.000274781
0.00027438
0.000273779
0.000272897
0.000271986
0.000271366
0.000271021
0.000270691
0.000270211
0.000269505
0.000268725
0.000267966
0.000267277
0.000266678
0.000266084
0.000265477
0.000264802
0.000264143
0.000263445
0.000262862
0.000262251
0.000261809
0.000285024
0.000284769
0.000284759
0.000284732
0.000284799
0.000284982
0.000284828
0.000284501
0.000284082
0.000284093
0.000283886
0.000284109
0.000283971
0.000283808
0.000283709
0.00028335
0.000283127
0.000283076
0.000283205
0.000283396
0.000283256
0.000282956
0.000282394
0.000282059
0.000281943
0.000282174
0.000282327
0.000282376
0.000281761
0.000281679
0.000282394
0.0002826
0.000282498
0.00028194
0.000281075
0.00028023
0.000279676
0.000279305
0.000278937
0.000278464
0.00027775
0.000276868
0.000276123
0.000275673
0.000275348
0.000275071
0.000274668
0.000274061
0.000273382
0.000272706
0.000272101
0.000271549
0.000271054
0.000270534
0.000270044
0.000269472
0.000268993
0.000268399
0.00026796
0.000293242
0.000292864
0.000292706
0.000292671
0.000292707
0.000292004
0.000291687
0.000291563
0.00029165
0.000292297
0.000291944
0.000292234
0.000291824
0.000291422
0.000291033
0.00029078
0.000290682
0.000290662
0.000290602
0.000290423
0.000290008
0.000289389
0.000288797
0.00028845
0.000288365
0.000288491
0.000288594
0.000288573
0.000287889
0.00028781
0.000288446
0.000288584
0.000288473
0.00028799
0.000287182
0.000286326
0.000285729
0.000285328
0.000284973
0.000284579
0.00028404
0.00028327
0.000282477
0.000281874
0.000281546
0.000281208
0.000280972
0.000280667
0.000280234
0.000279722
0.000279218
0.000278709
0.000278223
0.000277741
0.00027731
0.000276844
0.000276474
0.000275988
0.000275594
0.000304982
0.000304514
0.000303775
0.00030368
0.000304256
0.000303648
0.000304189
0.000303714
0.000303378
0.000303087
0.000302522
0.000302047
0.000301491
0.000300997
0.000300633
0.000300422
0.00030023
0.000300014
0.000299672
0.000299127
0.000298399
0.000297624
0.00029702
0.000296652
0.000296576
0.000296616
0.00029666
0.000296441
0.000295688
0.000295604
0.000296157
0.000296228
0.000296114
0.000295687
0.000294974
0.00029411
0.000293489
0.000293072
0.000292772
0.000292454
0.000292028
0.000291424
0.000290657
0.00029003
0.000289488
0.000289463
0.000289299
0.000289034
0.000288635
0.000288112
0.000287663
0.000287312
0.00028711
0.000286768
0.000286539
0.000286099
0.000285833
0.000285434
0.000285542
0.000318647
0.000318821
0.000319466
0.000319012
0.000318582
0.000318814
0.000318038
0.000317352
0.000316603
0.000315888
0.000315124
0.000314446
0.000313845
0.00031335
0.00031296
0.000312621
0.000312206
0.000311693
0.000310971
0.000310068
0.000309111
0.000308258
0.000307627
0.000307254
0.000307183
0.000307192
0.000307041
0.000306647
0.000305849
0.000305751