/*--------------------------------*- C++ -*----------------------------------*\
| =========                 |                                                 |
| \\      /  F ield         | OpenFOAM: The Open Source CFD Toolbox           |
|  \\    /   O peration     | Version:  2312                                  |
|   \\  /    A nd           | Website:  www.openfoam.com                      |
|    \\/     M anipulation  |                                                 |
\*---------------------------------------------------------------------------*/
FoamFile
{
    version     2.0;
    format      ascii;
    arch        "LSB;label=32;scalar=64";
    class       volScalarField;
    location    "1000";
    object      k;
}
// * * * * * * * * * * * * * * * * * * * * * * * * * * * * * * * * * * * * * //

dimensions      [0 2 -2 0 0 0 0];

internalField   nonuniform List<scalar> 
76025
(
0.00190014
0.00189626
0.00189229
0.00188964
0.00188709
0.00188598
0.00188413
0.00188246
0.00187948
0.0018767
0.00187397
0.00187091
0.00186772
0.0018637
0.00186132
0.00185807
0.00185592
0.00185359
0.0018515
0.00184943
0.00184795
0.00184667
0.00184526
0.0018445
0.00184311
0.00184255
0.00184291
0.00184244
0.00184215
0.00184218
0.00184338
0.00184351
0.00184566
0.00184657
0.00184963
0.00185229
0.00185492
0.00186165
0.00186689
0.00187257
0.00187953
0.00188652
0.00189766
0.00190716
0.00191796
0.00192794
0.00194199
0.00195584
0.00196968
0.001986
0.00199911
0.00202231
0.00204503
0.0020621
0.0020775
0.00211018
0.00212181
0.00211859
0.00214909
0.0021851
0.00224599
0.00229463
0.00240382
0.00247746
0.00264631
0.00276284
0.00303306
0.00322461
0.00356527
0.00191558
0.00191249
0.00190867
0.00190517
0.00190144
0.00189887
0.00189635
0.00189448
0.00189269
0.00189077
0.00188892
0.00188679
0.00188481
0.00188209
0.00188004
0.00187737
0.00187533
0.00187306
0.00187132
0.00186937
0.00186802
0.00186649
0.0018666
0.00186689
0.00186698
0.00186651
0.00186722
0.00186749
0.00187178
0.00187377
0.00187656
0.00187889
0.0018777
0.00187797
0.00187925
0.00188227
0.00188656
0.00189148
0.00189651
0.00190174
0.00190721
0.00191313
0.00191908
0.00192651
0.00193422
0.00194401
0.00195558
0.00196795
0.00198551
0.00200222
0.00201632
0.00204075
0.0020621
0.00206437
0.00208964
0.00209165
0.00211339
0.00214816
0.00219884
0.00224918
0.00232594
0.00239308
0.00251923
0.00260685
0.00280589
0.00294874
0.00326235
0.0034954
0.00414742
0.00192924
0.00192816
0.00192604
0.00192351
0.00192046
0.00191744
0.00191446
0.0019117
0.00190931
0.00190717
0.00190542
0.00190376
0.00190243
0.00190082
0.00189939
0.00189765
0.00189603
0.00189428
0.0018927
0.00189138
0.00188979
0.00188998
0.00188934
0.00188882
0.00189128
0.00188965
0.00189237
0.00189107
0.00189146
0.00189261
0.00189672
0.001901
0.00190327
0.00191291
0.00190972
0.00191992
0.00191637
0.00191687
0.00192004
0.00192486
0.00193118
0.00193636
0.00194453
0.00195149
0.00196087
0.00197281
0.00198522
0.00199965
0.00201663
0.00204063
0.00206132
0.00207688
0.00207491
0.00208943
0.00211297
0.00214647
0.0021867
0.00223212
0.00229033
0.00234844
0.00243741
0.00251214
0.00265323
0.00275418
0.00297955
0.0031408
0.00350273
0.00377691
0.00450789
0.00194423
0.00194466
0.00194427
0.00194304
0.00194125
0.0019393
0.00193716
0.00193485
0.00193259
0.00193033
0.00192833
0.00192643
0.00192485
0.00192341
0.0019222
0.00192107
0.00191991
0.00191884
0.00191761
0.00191589
0.0019168
0.00191748
0.00191791
0.00191721
0.00191796
0.0019179
0.0019226
0.00192429
0.00192386
0.00193062
0.00193392
0.00193689
0.00193578
0.00193805
0.0019417
0.00195256
0.00195903
0.00196609
0.00195893
0.00197475
0.0019687
0.00196787
0.00197186
0.00197836
0.00198661
0.00199652
0.0020075
0.00202037
0.00203473
0.00205137
0.00207087
0.00209338
0.00212032
0.00215036
0.0021855
0.00222423
0.00227129
0.00232234
0.002389
0.00245676
0.00255704
0.00264658
0.00280591
0.0029282
0.00318696
0.00337832
0.00380911
0.0041316
0.00498112
0.00196515
0.00196508
0.00196427
0.001965
0.00196401
0.00196241
0.00196097
0.00195939
0.00195786
0.00195616
0.00195449
0.00195315
0.00195189
0.00195054
0.00194948
0.00194832
0.001949
0.00194769
0.00194939
0.00194724
0.00194886
0.00194769
0.00194779
0.00194815
0.00194999
0.00195022
0.00195628
0.00195888
0.00196101
0.0019591
0.00195754
0.00196015
0.00196418
0.00197041
0.00197673
0.00198937
0.00199747
0.0020065
0.00199877
0.00201781
0.0020106
0.0020098
0.00201469
0.00202296
0.0020336
0.00204634
0.00206103
0.00207788
0.00209663
0.00211797
0.0021416
0.00216854
0.00219867
0.00223313
0.00227267
0.00231771
0.00237158
0.00243151
0.00250778
0.00258882
0.00270143
0.00281315
0.00298744
0.00314681
0.00343331
0.00367165
0.00417684
0.00456516
0.00550417
0.00199106
0.00199069
0.00198955
0.00199082
0.00199016
0.00199097
0.0019901
0.00199125
0.00199132
0.00199147
0.00199059
0.00198765
0.00198834
0.00198852
0.00198806
0.00198653
0.00198627
0.00198606
0.00198606
0.00198891
0.00198997
0.0019897
0.00199055
0.00199237
0.00199473
0.00199525
0.00200315
0.00200588
0.00200391
0.00201215
0.00201518
0.00201252
0.0020129
0.00201765
0.00202398
0.00203809
0.00204712
0.00205736
0.00204862
0.00206932
0.00206156
0.00206127
0.00206787
0.00207823
0.00209174
0.00210775
0.00212611
0.0021468
0.00216953
0.0021948
0.00222271
0.00225417
0.00228943
0.00232971
0.00237576
0.00242859
0.00249097
0.0025616
0.00264959
0.00274554
0.00287538
0.00300922
0.00320997
0.00340838
0.00373399
0.00405397
0.00460774
0.00512705
0.00603217
0.00202583
0.00202526
0.00202346
0.00202504
0.00202413
0.00202341
0.00202645
0.00202735
0.00202707
0.00202754
0.00202855
0.0020287
0.0020296
0.00202884
0.00203228
0.00203203
0.00203052
0.00203424
0.00203556
0.00203781
0.00203565
0.00203288
0.00203458
0.00203371
0.00203584
0.0020384
0.00204294
0.00204836
0.00205263
0.00205698
0.00206115
0.00207046
0.00207392
0.00209183
0.00209907
0.00210814
0.00209686
0.00211725
0.00210783
0.00210644
0.00211192
0.00212172
0.00213439
0.00214995
0.00216747
0.00218712
0.00220865
0.00223265
0.00225893
0.00228837
0.00232076
0.00235764
0.00239865
0.00244607
0.00249956
0.00256206
0.00263415
0.00271845
0.00281956
0.00293566
0.00308507
0.00324971
0.00348466
0.00373099
0.00412202
0.0045084
0.00518096
0.00572023
0.00694924
0.00207156
0.00206965
0.00206868
0.00206679
0.00206807
0.00206617
0.00206484
0.0020659
0.00206588
0.00206617
0.00206758
0.00206993
0.00207237
0.00207828
0.00208058
0.00208018
0.00208603
0.00208816
0.00208581
0.00208858
0.00209064
0.00209038
0.00209997
0.00210322
0.00210138
0.00211236
0.00211638
0.00212051
0.00212385
0.00211586
0.00211222
0.00211448
0.00211797
0.00212449
0.00213033
0.0021381
0.00214532
0.0021547
0.00216462
0.00217592
0.00218903
0.00220404
0.00222075
0.00223931
0.00225973
0.00228244
0.00230734
0.00233523
0.00236586
0.00240043
0.00243833
0.00248185
0.00252984
0.00258598
0.00264847
0.00272283
0.00280683
0.00290821
0.00302571
0.00316842
0.00334211
0.00355123
0.00382507
0.00414755
0.00459494
0.00510675
0.00581528
0.00658166
0.00765009
0.00212822
0.00212865
0.00212698
0.00212409
0.00212614
0.00212629
0.00212325
0.00212319
0.00212225
0.0021243
0.00212643
0.00212872
0.00212964
0.00213712
0.00214031
0.00214178
0.00214531
0.0021508
0.00215169
0.00216303
0.00216611
0.00216982
0.0021609
0.00217075
0.00216503
0.00216142
0.00216143
0.00216372
0.00216695
0.00217087
0.00217506
0.00218111
0.00218781
0.00219615
0.00220535
0.00221595
0.00222758
0.0022403
0.0022542
0.00226935
0.00228597
0.00230433
0.00232434
0.00234633
0.00237038
0.00239708
0.00242633
0.00245913
0.00249512
0.00253599
0.00258059
0.00263217
0.00268873
0.00275545
0.00282929
0.00291813
0.00301797
0.00314037
0.00328141
0.00345703
0.00366816
0.00393078
0.00426598
0.00466875
0.00520788
0.00581875
0.00663222
0.00750969
0.00863887
0.0021934
0.00219361
0.00219312
0.00219683
0.00219743
0.00219889
0.00219866
0.0021996
0.00219979
0.00219758
0.00219595
0.00220305
0.00220549
0.00220921
0.00220533
0.00220344
0.00220335
0.00220583
0.00220768
0.00221138
0.00221376
0.00221723
0.0022194
0.00222318
0.00222686
0.00223061
0.0022355
0.002241
0.00224777
0.00225505
0.00226341
0.00227266
0.00228279
0.00229386
0.00230595
0.00231914
0.00233341
0.00234888
0.00236571
0.00238397
0.0024039
0.00242579
0.00244958
0.00247564
0.00250412
0.00253573
0.00257032
0.0026092
0.00265175
0.00270037
0.00275335
0.00281495
0.00288237
0.0029625
0.0030512
0.00315877
0.00328031
0.00343047
0.00360516
0.00382451
0.00408865
0.00442029
0.00483375
0.0053329
0.00597294
0.00668913
0.00760976
0.0085903
0.00972714
0.00227799
0.00227701
0.00227729
0.00227821
0.00228309
0.00227994
0.00228395
0.0022807
0.00228021
0.00228073
0.00228337
0.00229164
0.00228729
0.00229428
0.00229667
0.00229061
0.00228704
0.00228682
0.00228932
0.00229324
0.00229758
0.00230286
0.00230801
0.00231411
0.00232019
0.00232736
0.00233485
0.00234372
0.00235293
0.00236335
0.00237454
0.00238657
0.00239949
0.00241334
0.00242834
0.00244446
0.00246181
0.00248051
0.0025008
0.00252276
0.00254667
0.00257285
0.00260131
0.00263247
0.00266652
0.00270429
0.00274566
0.0027922
0.00284319
0.0029016
0.00296546
0.00304
0.00312188
0.00321975
0.00332883
0.00346193
0.00361413
0.00380264
0.00402536
0.00430279
0.00463976
0.00505428
0.00556555
0.00616704
0.00691909
0.00772988
0.00877514
0.00977475
0.011087
0.00237323
0.00238139
0.00238414
0.0023834
0.00239252
0.0023944
0.00239198
0.00239873
0.00240083
0.00240157
0.00239869
0.00240803
0.00241134
0.00241368
0.0024135
0.00241143
0.00242301
0.00241801
0.00241159
0.00241829
0.00241606
0.00241814
0.00242366
0.00243062
0.00243953
0.00244897
0.0024597
0.00247125
0.00248356
0.00249669
0.00251066
0.0025256
0.00254158
0.00255874
0.00257719
0.00259695
0.00261815
0.00264096
0.00266562
0.00269227
0.00272123
0.00275288
0.0027873
0.00282494
0.00286613
0.00291178
0.00296195
0.00301837
0.00308053
0.00315175
0.00323036
0.00332231
0.00342442
0.00354695
0.00368519
0.00385466
0.00405058
0.00429318
0.0045811
0.00493504
0.00536258
0.00587368
0.00649486
0.00719979
0.00806433
0.00895825
0.0101145
0.0111032
0.0126308
0.00249786
0.00249796
0.00249924
0.00250128
0.00250449
0.00251324
0.00251732
0.00252932
0.00253473
0.00254931
0.00255453
0.00255672
0.0025563
0.00257307
0.00257613
0.00257962
0.00256267
0.00257327
0.00255997
0.00255438
0.00255584
0.00256124
0.00256927
0.00257898
0.0025901
0.00260233
0.00261562
0.00262991
0.00264521
0.00266156
0.002679
0.00269764
0.00271753
0.00273889
0.00276166
0.00278599
0.00281204
0.00284002
0.00287021
0.0029028
0.00293818
0.00297681
0.00301887
0.00306489
0.00311541
0.00317145
0.0032334
0.00330315
0.00338074
0.00346976
0.00356943
0.00368617
0.00381798
0.00397615
0.00415727
0.00437864
0.00463593
0.0049517
0.0053228
0.00577136
0.00630088
0.00691912
0.00764887
0.00845606
0.00941383
0.0103891
0.0115914
0.0126405
0.014134
0.00265986
0.00266821
0.00267212
0.00268518
0.0026823
0.00267585
0.00268816
0.00268343
0.00268197
0.00268553
0.00268787
0.00269247
0.00269587
0.00270126
0.00270478
0.00270972
0.0027125
0.0027177
0.00272273
0.00272904
0.00273717
0.002747
0.00275837
0.00277108
0.00278506
0.00280024
0.0028166
0.00283416
0.00285294
0.00287302
0.00289447
0.00291735
0.00294187
0.00296801
0.00299587
0.00302567
0.0030576
0.00309193
0.00312903
0.00316913
0.00321278
0.00326053
0.00331271
0.00337004
0.00343335
0.00350387
0.00358254
0.00367147
0.00377169
0.00388695
0.00401812
0.00417182
0.00434794
0.0045579
0.00480054
0.00509259
0.00543112
0.00583758
0.00630698
0.00686082
0.0074961
0.00822102
0.00904804
0.00994348
0.0109723
0.0119963
0.0132299
0.014271
0.015762
0.0028677
0.00287311
0.00286755
0.00286735
0.00286791
0.00286915
0.00287301
0.00287695
0.00288112
0.00288657
0.00289222
0.00289864
0.00290524
0.00291247
0.00291984
0.00292784
0.00293624
0.00294547
0.00295555
0.00296665
0.00297889
0.00299234
0.00300702
0.00302295
0.00304016
0.00305868
0.00307856
0.00309987
0.00312267
0.00314709
0.00317319
0.0032012
0.00323108
0.00326301
0.00329718
0.00333387
0.00337335
0.00341602
0.00346231
0.00351264
0.00356772
0.00362832
0.00369501
0.00376882
0.00385104
0.0039433
0.00404727
0.00416553
0.00430025
0.00445555
0.00463401
0.00484208
0.00508208
0.00536369
0.0056875
0.00606788
0.00650359
0.00701096
0.00758522
0.00824272
0.00897746
0.00979371
0.0106974
0.0116545
0.0127202
0.0137635
0.0149746
0.0160113
0.0173166
0.00312544
0.00312143
0.00312058
0.00312274
0.00312654
0.00313151
0.00313757
0.00314448
0.00315203
0.00316032
0.00316917
0.00317865
0.00318867
0.00319928
0.00321046
0.0032223
0.00323484
0.0032482
0.00326247
0.00327772
0.00329406
0.00331156
0.00333031
0.00335038
0.00337186
0.00339486
0.00341946
0.00344581
0.00347401
0.00350426
0.00353669
0.00357138
0.00360855
0.00364848
0.00369147
0.00373794
0.0037883
0.00384312
0.00390304
0.00396873
0.0040412
0.00412157
0.0042108
0.00431041
0.00442229
0.00454864
0.00469193
0.00485523
0.00504172
0.00525564
0.00550065
0.00578255
0.00610474
0.0064749
0.0068948
0.00737426
0.00791179
0.00851828
0.00918989
0.0099364
0.0107505
0.0116292
0.0125797
0.0135563
0.0146286
0.0156265
0.0168241
0.0176759
0.0191069
0.00345008
0.00345478
0.00346058
0.00346762
0.00347546
0.00348395
0.00349307
0.00350288
0.00351336
0.00352455
0.00353647
0.00354913
0.00356255
0.00357677
0.00359182
0.00360776
0.00362465
0.00364257
0.00366161
0.00368185
0.0037034
0.00372635
0.00375082
0.00377693
0.0038048
0.0038346
0.00386647
0.0039006
0.00393724
0.00397642
0.00401844
0.00406361
0.00411229
0.00416494
0.00422206
0.00428425
0.00435221
0.00442678
0.00450893
0.00459969
0.00470052
0.00481294
0.00493837
0.00507884
0.00523677
0.00541473
0.00561563
0.00584265
0.00609926
0.00638927
0.00671641
0.00708518
0.00749888
0.00796287
0.00847868
0.00905259
0.00968208
0.0103748
0.0111217
0.0119304
0.0127876
0.0136924
0.0146437
0.015602
0.0166189
0.0175563
0.0186186
0.0194055
0.020524
0.00391469
0.00392369
0.00393289
0.00394311
0.00395406
0.00396566
0.00397795
0.00399099
0.00400484
0.00401954
0.00403515
0.00405172
0.00406933
0.00408802
0.00410788
0.00412899
0.00415143
0.00417531
0.00420073
0.00422783
0.00425674
0.0042876
0.00432057
0.00435586
0.00439359
0.00443411
0.00447749
0.00452396
0.00457386
0.00462759
0.00468558
0.00474837
0.00481654
0.00489079
0.00497188
0.00506073
0.0051583
0.00526578
0.00538443
0.0055156
0.00566109
0.00582255
0.00600162
0.00620048
0.00642156
0.00666733
0.00694052
0.00724391
0.00758052
0.00795337
0.0083655
0.00882002
0.00931934
0.00986639
0.0104617
0.0111083
0.0118025
0.012548
0.0133339
0.0141656
0.0150242
0.0159117
0.0168132
0.0177047
0.0186128
0.0194436
0.020315
0.0209725
0.0218215
0.00457494
0.00458754
0.00460026
0.00461407
0.00462869
0.00464405
0.00466025
0.00467743
0.00469566
0.00471507
0.00473574
0.00475777
0.0047813
0.00480644
0.00483332
0.00486209
0.0048929
0.00492592
0.00496133
0.00499933
0.00504012
0.00508396
0.00513105
0.00518153
0.00523574
0.00529404
0.00535685
0.00542462
0.00549786
0.00557714
0.0056631
0.00575643
0.00585792
0.0059684
0.00608881
0.00622016
0.00636355
0.00652019
0.00669136
0.00687837
0.00708296
0.00730654
0.00755054
0.00781697
0.00810791
0.00842542
0.00877175
0.00914909
0.00955974
0.0100058
0.0104893
0.0110118
0.0115744
0.0121778
0.0128212
0.0135043
0.0142225
0.014976
0.0157534
0.0165569
0.0173651
0.0181835
0.0189835
0.0197574
0.0205054
0.021177
0.0218004
0.0222484
0.0225455
0.00555384
0.00557389
0.00559398
0.00561533
0.00563761
0.0056608
0.00568509
0.00571066
0.00573772
0.00576643
0.00579699
0.00582957
0.00586439
0.00590167
0.00594163
0.00598456
0.00603056
0.00607986
0.00613274
0.00618955
0.0062506
0.00631625
0.00638688
0.00646289
0.00654469
0.00663273
0.00672748
0.00682944
0.00693917
0.00705722
0.00718422
0.00732083
0.00746775
0.00762575
0.00779564
0.0079783
0.00817467
0.00838581
0.00861278
0.00885676
0.00911925
0.00940134
0.00970428
0.0100298
0.0103796
0.0107553
0.0111586
0.0115908
0.0120533
0.0125472
0.0130729
0.0136306
0.0142197
0.0148391
0.0154864
0.0161588
0.016851
0.0175598
0.0182754
0.0189947
0.0196985
0.0203934
0.0210359
0.0216485
0.0221794
0.0226331
0.0229007
0.0229641
0.0229274
0.00715157
0.00718728
0.00722325
0.00726093
0.00729978
0.0073398
0.00738124
0.00742437
0.00746945
0.00751673
0.00756647
0.00761893
0.00767439
0.00773316
0.00779552
0.00786181
0.00793231
0.00800733
0.00808716
0.00817212
0.00826247
0.00835852
0.00846058
0.00856898
0.00868406
0.0088062
0.00893581
0.0090733
0.00921915
0.00937385
0.00953794
0.009712
0.00989665
0.0100926
0.0103006
0.0105214
0.010756
0.0110052
0.0112701
0.0115517
0.0118514
0.0121698
0.0125082
0.0128678
0.0132496
0.0136547
0.0140838
0.0145373
0.0150153
0.0155175
0.0160431
0.0165908
0.0171581
0.0177428
0.018341
0.0189484
0.0195587
0.0201675
0.0207667
0.0213458
0.0218958
0.0224118
0.0228612
0.0232583
0.0235179
0.0235458
0.0235079
0.0233401
0.0233027
0.0100951
0.0101593
0.0102228
0.0102869
0.0103512
0.0104157
0.0104805
0.0105459
0.0106122
0.0106797
0.0107486
0.0108192
0.0108919
0.0109668
0.0110444
0.0111249
0.0112087
0.011296
0.0113873
0.0114827
0.0115828
0.0116879
0.0117984
0.0119147
0.0120373
0.0121664
0.0123027
0.0124464
0.0125982
0.0127585
0.0129279
0.0131069
0.0132962
0.0134965
0.0137085
0.0139329
0.0141706
0.0144225
0.0146895
0.0149725
0.0152723
0.0155896
0.0159249
0.0162789
0.0166519
0.0170441
0.0174548
0.0178836
0.0183292
0.0187899
0.0192634
0.0197474
0.0202379
0.0207325
0.0212257
0.0217125
0.0221854
0.022644
0.0230766
0.0234731
0.0238216
0.0241434
0.0243016
0.0243036
0.0242087
0.0239291
0.023724
0.0234977
0.024105
0.0149385
0.0150138
0.0150866
0.0151583
0.0152283
0.0152964
0.0153629
0.0154281
0.0154921
0.0155551
0.0156176
0.01568
0.0157425
0.0158055
0.0158692
0.015934
0.0160003
0.0160685
0.0161391
0.0162126
0.0162893
0.0163698
0.0164546
0.0165441
0.0166388
0.0167391
0.0168456
0.0169586
0.0170787
0.0172064
0.0173421
0.0174864
0.0176396
0.0178026
0.0179754
0.0181594
0.018355
0.0185627
0.0187839
0.0190196
0.0192708
0.0195378
0.0198208
0.0201194
0.0204329
0.0207603
0.0210998
0.0214498
0.0218076
0.0221705
0.0225356
0.0229002
0.0232599
0.0236127
0.0239504
0.0242669
0.0245618
0.0248375
0.0250811
0.0252368
0.0252444
0.0251859
0.0249844
0.0247007
0.0243216
0.0238926
0.0238334
0.0237617
0.0246591
0.0212894
0.0213505
0.0214074
0.0214617
0.0215127
0.0215613
0.0216066
0.0216505
0.0216908
0.0217274
0.0217626
0.0217986
0.0218334
0.0218672
0.0219
0.0219319
0.0219634
0.0219946
0.0220262
0.0220586
0.0220923
0.0221277
0.0221654
0.0222056
0.022249
0.022296
0.0223469
0.0224022
0.022462
0.0225269
0.0225964
0.0226713
0.0227504
0.0228355
0.0229236
0.023019
0.0231151
0.0232135
0.0233214
0.0234438
0.0235826
0.0237379
0.0239089
0.0240943
0.0242917
0.0244992
0.0247135
0.0249327
0.0251528
0.0253686
0.0255845
0.0257952
0.0259968
0.026179
0.0263278
0.0264476
0.0264963
0.0264636
0.0263612
0.0261186
0.0258283
0.0254672
0.0250103
0.0244219
0.023982
0.0236732
0.0240652
0.0253427
0.0283937
0.0284003
0.0284188
0.0284332
0.0284443
0.0284519
0.0284628
0.0284671
0.0285042
0.028506
0.0284775
0.0284588
0.0284925
0.0284982
0.0284989
0.0284956
0.0284888
0.0284791
0.0284673
0.0284537
0.0284393
0.0284239
0.0284078
0.0283913
0.0283745
0.0283582
0.0283429
0.0283292
0.0283176
0.0283079
0.0282997
0.0282926
0.0282863
0.0282802
0.0282732
0.0282624
0.0282378
0.0281215
0.0279727
0.0278622
0.0277919
0.0277576
0.0277532
0.0277719
0.0278073
0.0278538
0.0279075
0.0279634
0.0280212
0.0280734
0.0281138
0.0281888
0.0281953
0.028166
0.0280646
0.0278825
0.0276481
0.0273846
0.0270448
0.0266594
0.0261995
0.0255038
0.0247569
0.024102
0.0236582
0.0236733
0.0243784
0.0270242
0.0297697
0.034936
0.0353484
0.0353065
0.0352743
0.035225
0.035186
0.0351279
0.0350852
0.0350306
0.0349773
0.0348884
0.0347668
0.0346483
0.0345301
0.0344119
0.0342935
0.0341746
0.0340554
0.0339359
0.0338158
0.0336965
0.0335761
0.0334545
0.0333329
0.0332098
0.0330866
0.0329645
0.0328421
0.0327211
0.0325991
0.032476
0.03235
0.0322216
0.0320889
0.0319535
0.0318126
0.0316694
0.0315193
0.0313623
0.031205
0.031052
0.030906
0.0307681
0.0306382
0.0305148
0.030395
0.0302764
0.0301523
0.0300198
0.0298657
0.0296785
0.0294585
0.0292114
0.0289284
0.0285905
0.0281934
0.0277679
0.0272343
0.0264009
0.0254723
0.0245079
0.0238658
0.0233166
0.0232407
0.0238735
0.0262079
0.0298396
0.0344392
0.0400923
0.046013
0.0394117
0.0392852
0.0391555
0.0390227
0.0388875
0.0387484
0.0386072
0.0384629
0.0383167
0.0381646
0.0380046
0.0378379
0.0376659
0.0374898
0.03731
0.0371274
0.0369423
0.0367556
0.0365674
0.036378
0.0361878
0.0359971
0.0358061
0.0356153
0.0354245
0.0352339
0.0350433
0.0348532
0.034663
0.0344737
0.0342837
0.0340953
0.0339048
0.0337129
0.0335179
0.0333206
0.033122
0.0329238
0.0327283
0.0325394
0.0323559
0.0321715
0.0319849
0.0317902
0.0315818
0.0313528
0.0310913
0.0307893
0.0304293
0.0299981
0.0294887
0.0288666
0.0281447
0.0272914
0.0263371
0.0253767
0.0244845
0.0236274
0.0229427
0.022649
0.0229012
0.0242703
0.0275195
0.0319035
0.0379583
0.0447708
0.0522115
0.0596099
0.0646265
0.0390292
0.0388755
0.0387197
0.0385653
0.0384124
0.0382531
0.0380937
0.0379301
0.0377646
0.0375952
0.0374243
0.0372472
0.0370647
0.0368816
0.036689
0.0364962
0.0362961
0.036096
0.0358906
0.0356818
0.03547
0.0352545
0.0350361
0.0348155
0.0345891
0.0343555
0.0341163
0.0338712
0.0336199
0.0333634
0.0330988
0.0328291
0.0325494
0.0322627
0.0319649
0.0316574
0.0313387
0.0310067
0.0306629
0.0302926
0.0299089
0.0294914
0.0290493
0.0285624
0.0280501
0.0274963
0.0269262
0.0263299
0.0257359
0.0251405
0.0245799
0.0240686
0.0236383
0.0232836
0.0229739
0.0229129
0.0229093
0.0231777
0.0242998
0.0260977
0.0289865
0.0325279
0.0376901
0.0434794
0.0505905
0.0579032
0.0647028
0.0703062
0.0730608
0.0290157
0.0291139
0.0291313
0.0291473
0.0293717
0.0293006
0.0295218
0.0295336
0.0296173
0.0296521
0.0298896
0.0299733
0.0299202
0.0301324
0.0300015
0.030196
0.0300666
0.030252
0.0301909
0.0301797
0.0302521
0.0302424
0.0304638
0.0305702
0.0305429
0.0304788
0.0304186
0.0303662
0.0303256
0.0302906
0.0302595
0.0302293
0.0301977
0.0301646
0.0301275
0.0300864
0.0300395
0.0299848
0.0299233
0.0298486
0.0297606
0.0296516
0.0295202
0.0293589
0.0291661
0.0289348
0.0286606
0.0283376
0.0279583
0.0275195
0.0270113
0.0264334
0.0257715
0.0250231
0.0241663
0.0232032
0.022115
0.0209091
0.0196208
0.0182677
0.0169467
0.0156787
0.0146883
0.0139621
0.0139727
0.0145024
0.0156905
0.0174735
0.0193957
0.00196647
0.00196654
0.00196721
0.00196723
0.00196688
0.00196667
0.00196521
0.00196459
0.00196631
0.00196654
0.00196715
0.00196745
0.00196973
0.00197083
0.00197099
0.0019692
0.0019719
0.00197304
0.00197276
0.00197144
0.00197495
0.00197847
0.00197767
0.00197985
0.00198123
0.00198227
0.00198614
0.0019877
0.00198748
0.00198675
0.00198867
0.00199072
0.00199147
0.00198629
0.00198427
0.00198128
0.00198055
0.0019783
0.00197316
0.00196914
0.00196456
0.00196342
0.00196115
0.00195445
0.0019511
0.00194489
0.00194031
0.0019366
0.00193093
0.00192535
0.00192167
0.0019188
0.00191784
0.00191713
0.00191589
0.00191408
0.00191103
0.00190718
0.00190357
0.00197568
0.00197586
0.00197584
0.00197588
0.00197482
0.00197509
0.00197406
0.00197566
0.00197589
0.00197609
0.0019774
0.00197744
0.00197795
0.00197791
0.0019775
0.00197881
0.00197996
0.0019803
0.00197985
0.00198027
0.00198442
0.00198586
0.00198502
0.00198712
0.00198801
0.00198917
0.00199259
0.00199408
0.0019933
0.00199243
0.00199454
0.00199649
0.00199684
0.00199251
0.00199032
0.00198733
0.00198623
0.00198447
0.00198045
0.00197611
0.0019711
0.0019693
0.00196769
0.00196333
0.0019595
0.00195492
0.00194978
0.00194627
0.00194227
0.0019372
0.00193235
0.0019279
0.00192468
0.00192292
0.0019221
0.00192141
0.00192073
0.00191935
0.00191765
0.00198903
0.0019887
0.00198865
0.00198898
0.00198796
0.0019874
0.00198844
0.00198821
0.00198845
0.0019888
0.00198892
0.00198908
0.00198938
0.00198962
0.00198992
0.00199099
0.00199142
0.00199102
0.00198999
0.00199362
0.00199559
0.00199594
0.00199551
0.001997
0.00199764
0.00199924
0.00200201
0.00200343
0.00200217
0.00200124
0.00200345
0.00200513
0.00200513
0.00200159
0.00199919
0.00199624
0.00199483
0.00199321
0.00199013
0.00198618
0.00198083
0.00197812
0.00197675
0.00197412
0.00197023
0.00196668
0.00196207
0.00195834
0.00195505
0.00195121
0.00194698
0.00194251
0.00193851
0.001935
0.00193274
0.0019312
0.00193053
0.00192985
0.00192942
0.00200548
0.00200583
0.00200496
0.00200513
0.00200632
0.00200588
0.0020064
0.0020078
0.00200705
0.00200673
0.00200697
0.00200732
0.00200621
0.00200529
0.0020046
0.00200552
0.00200595
0.00200661
0.00200784
0.00200978
0.00201081
0.00201067
0.00200996
0.00201065
0.00201141
0.00201332
0.00201526
0.00201652
0.00201483
0.00201385
0.00201603
0.00201736
0.0020172
0.0020143
0.00201177
0.00200883
0.00200723
0.00200564
0.0020031
0.00199995
0.00199473
0.00199093
0.00198928
0.00198757
0.00198457
0.0019815
0.00197768
0.00197404
0.00197088
0.00196782
0.00196458
0.00196094
0.00195718
0.00195337
0.00195008
0.00194732
0.00194547
0.0019442
0.00194434
0.00203122
0.00202987
0.00202946
0.00203102
0.00202999
0.00203067
0.0020288
0.00202792
0.00202645
0.00202771
0.00202644
0.00202614
0.00202688
0.00202612
0.00202718
0.00202711
0.00202637
0.00202622
0.00202815
0.0020293
0.00202955
0.0020292
0.0020282
0.00202819
0.00202921
0.00203079
0.00203231
0.00203345
0.0020314
0.00203041
0.00203243
0.00203341
0.00203316
0.00203078
0.00202819
0.00202526
0.00202352
0.00202194
0.00201972
0.00201716
0.00201275
0.0020083
0.00200587
0.00200441
0.00200235
0.00199984
0.00199676
0.00199353
0.0019905
0.00198777
0.00198523
0.00198255
0.00197967
0.00197647
0.00197333
0.0019701
0.00196775
0.00196492
0.00196491
0.00206178
0.00206025
0.00206196
0.00206057
0.00206087
0.00205856
0.00206003
0.00205858
0.00205965
0.00205863
0.00205738
0.00205646
0.00205612
0.00205528
0.00205479
0.00205388
0.00205289
0.00205249
0.00205336
0.00205402
0.00205401
0.00205342
0.00205192
0.00205172
0.00205218
0.00205364
0.00205485
0.00205563
0.00205316
0.00205219
0.00205396
0.00205459
0.00205429
0.00205233
0.0020498
0.00204689
0.00204504
0.00204354
0.0020416
0.00203943
0.00203631
0.00203147
0.00202824
0.00202661
0.00202499
0.00202314
0.00202087
0.00201824
0.00201545
0.00201279
0.00201047
0.00200834
0.00200628
0.00200395
0.00200161
0.00199881
0.00199648
0.00199366
0.00199179
0.0021089
0.0021079
0.00210638
0.00210481
0.00210287
0.00210101
0.00209964
0.00209778
0.0020963
0.00209467
0.00209317
0.00209196
0.00209081
0.00208933
0.00208796
0.00208658
0.00208572
0.00208558
0.00208582
0.00208545
0.00208472
0.00208254
0.00208092
0.00208044
0.00208078
0.0020819
0.00208284
0.00208336
0.00208057
0.0020796
0.0020811
0.00208139
0.00208104
0.00207937
0.00207702
0.00207415
0.00207218
0.00207072
0.00206899
0.00206709
0.00206483
0.00206122
0.00205695
0.00205459
0.00205337
0.00205188
0.00205014
0.00204828
0.00204636
0.00204426
0.00204222
0.00204017
0.00203844
0.00203665
0.00203495
0.00203306
0.00203122
0.00202872
0.00202695
0.00216097
0.00215892
0.002156
0.00215369
0.00215096
0.00214867
0.00214637
0.00214422
0.00214223
0.00214031
0.00213838
0.00213639
0.00213418
0.00213193
0.0021302
0.002129
0.0021285
0.0021281
0.00212728
0.00212557
0.002123
0.00212019
0.0021185
0.00211768
0.00211772
0.00211843
0.00211901
0.00211914
0.00211578
0.00211471
0.00211589
0.00211586
0.00211548
0.00211401
0.00211199
0.00210929
0.00210715
0.00210588
0.00210457
0.00210289
0.00210108
0.0020985
0.00209469
0.00209135
0.00208943
0.00208904
0.00208799
0.00208606
0.00208374
0.00208166
0.00208019
0.00207892
0.0020776
0.00207621
0.00207522
0.00207298
0.00207347
0.00207263
0.00207109
0.00222241
0.00221983
0.00221637
0.00221376
0.00221055
0.00220779
0.00220479
0.00220192
0.00219894
0.00219595
0.00219283
0.00218978
0.00218689
0.00218453
0.00218286
0.00218167
0.00218058
0.00217891
0.00217635
0.00217303
0.00216931
0.00216604
0.00216402
0.00216284
0.00216269
0.00216318
0.00216364
0.00216307
0.00215935
0.00215821
0.00215901
0.00215871
0.00215826
0.00215692
0.00215513
0.00215287
0.00215067
0.00214938
0.00214837
0.0021472
0.00214586
0.00214431
0.00214167
0.0021378
0.00213525
0.00213536
0.00213569
0.0021354
0.00213491
0.00213338
0.00213031
0.00212902
0.00212853
0.00212783
0.00212778
0.00212628
0.00212743
0.00212631
0.00212574
0.00229803
0.0022947
0.00229034
0.00228681
0.00228264
0.0022789
0.00227488
0.0022711
0.00226725
0.00226356
0.00225997
0.00225671
0.00225378
0.00225139
0.00224935
0.00224736
0.00224485
0.00224145
0.00223719
0.00223278
0.00222842
0.00222489
0.00222262
0.00222137
0.00222136
0.00222132
0.00222079
0.00221915
0.00221484
0.00221349
0.00221385
0.00221331
0.00221282
0.00221165
0.00221012
0.00220826
0.00220646
0.0022053
0.00220447
0.00220361
0.00220316
0.00220207
0.00220056
0.00219858
0.00219558
0.00219354
0.00219196
0.00219393
0.00219415
0.0021927
0.00219202
0.00219414
0.00219418
0.00219417
0.00219364
0.00219092
0.00219278
0.00219314
0.00219356
0.00238902
0.00238505
0.00237988
0.00237569
0.00237084
0.00236646
0.00236188
0.00235753
0.00235315
0.00234897
0.0023449
0.00234109
0.00233749
0.00233419
0.00233084
0.00232707
0.00232249
0.00231712
0.00231142
0.00230604
0.00230085
0.00229677
0.00229406
0.00229257
0.00229226
0.00229155
0.00229019
0.00228776
0.00228321
0.00228171
0.0022816
0.00228082
0.00228024
0.00227917
0.00227787
0.00227639
0.00227501
0.00227404
0.00227361
0.00227363
0.00227194
0.00227331
0.0022732
0.00227218
0.00227037
0.002269
0.0022687
0.00226735
0.00226728
0.00226689
0.00226905
0.00226955
0.00226978
0.00227186
0.00227213
0.00227605
0.00227712
0.00227779
0.00227835
0.00250485
0.00250023
0.00249417
0.00248924
0.00248351
0.00247822
0.00247262
0.00246721
0.00246176
0.00245649
0.00245132
0.00244635
0.0024415
0.00243666
0.00243141
0.00242558
0.00241908
0.00241225
0.00240558
0.00239928
0.00239353
0.00238923
0.00238641
0.00238484
0.00238402
0.00238233
0.00237968
0.0023759
0.00237069
0.00236878
0.00236814
0.00236716
0.00236657
0.00236568
0.00236469
0.00236369
0.00236282
0.00236262
0.00236215
0.00236077
0.00236358
0.00236156
0.00236202
0.00236371
0.00236653
0.00236611
0.00236316
0.0023629
0.00236373
0.00236418
0.00236995
0.00237154
0.00237125
0.00236776
0.0023663
0.00236736
0.00236829
0.00236978
0.00237215
0.00265209
0.00264642
0.00263897
0.00263274
0.00262556
0.00261882
0.00261175
0.00260492
0.00259808
0.00259141
0.00258477
0.00257819
0.00257146
0.00256439
0.00255675
0.0025486
0.00254003
0.00253147
0.00252326
0.00251556
0.00250894
0.00250389
0.00250035
0.00249789