/*--------------------------------*- C++ -*----------------------------------*\
| =========                 |                                                 |
| \\      /  F ield         | OpenFOAM: The Open Source CFD Toolbox           |
|  \\    /   O peration     | Version:  2312                                  |
|   \\  /    A nd           | Website:  www.openfoam.com                      |
|    \\/     M anipulation  |                                                 |
\*---------------------------------------------------------------------------*/
FoamFile
{
    version     2.0;
    format      ascii;
    arch        "LSB;label=32;scalar=64";
    class       volScalarField;
    location    "1000";
    object      nut;
}
// * * * * * * * * * * * * * * * * * * * * * * * * * * * * * * * * * * * * * //

dimensions      [0 2 -1 0 0 0 0];

internalField   nonuniform List<scalar> 
76025
(
0.00131481
0.00131362
0.00131253
0.00131231
0.00131226
0.00131298
0.00131356
0.00131439
0.00131484
0.00131553
0.00131611
0.00131635
0.00131638
0.0013156
0.00131625
0.00131611
0.00131718
0.00131744
0.00131865
0.00131922
0.00132075
0.00132219
0.00132332
0.00132471
0.00132475
0.00132659
0.00132797
0.00132902
0.00132968
0.00132988
0.00133263
0.00133377
0.00133588
0.00133683
0.00134066
0.00134352
0.00134608
0.00135216
0.00135722
0.00136215
0.00136688
0.00137151
0.00137658
0.00138155
0.00138602
0.00139072
0.00139774
0.00140446
0.00141293
0.00142186
0.00142964
0.00144802
0.001472
0.00148056
0.00148655
0.00151751
0.00149807
0.00148153
0.00151987
0.0015524
0.00158168
0.00160245
0.00164764
0.00167951
0.00174889
0.00179607
0.00190228
0.00195794
0.00209842
0.0013231
0.0013227
0.00132188
0.00132117
0.00132048
0.0013203
0.00132002
0.00132015
0.00132047
0.00132117
0.00132173
0.00132256
0.00132323
0.00132346
0.00132433
0.0013249
0.00132617
0.00132679
0.00132769
0.00132805
0.00132865
0.00132895
0.00133107
0.0013333
0.00133454
0.00133529
0.00133644
0.00133677
0.00134341
0.00134564
0.00134948
0.00134933
0.00134601
0.00134653
0.00134164
0.00134294
0.001351
0.00135785
0.00136215
0.00136522
0.00136704
0.00136772
0.0013676
0.00136911
0.00137025
0.00137264
0.00137959
0.00136938
0.00138218
0.0013918
0.00140308
0.00142544
0.00144866
0.00145801
0.00148549
0.00148103
0.00149689
0.00152996
0.00155383
0.00158645
0.00160786
0.0016435
0.00169127
0.00172399
0.00180128
0.00185404
0.00196133
0.00204527
0.00223531
0.00133018
0.00133086
0.00133098
0.0013307
0.00133049
0.00133005
0.00132967
0.00132912
0.00132855
0.00132857
0.00132881
0.00132942
0.00133051
0.00133156
0.00133244
0.001333
0.00133353
0.00133437
0.0013351
0.00133645
0.00133687
0.00133967
0.00134065
0.00134197
0.00134592
0.00134363
0.00134884
0.00134487
0.00134581
0.00134752
0.00135153
0.00135667
0.00135328
0.00136406
0.00135966
0.00136426
0.00135479
0.00134992
0.00134924
0.00134967
0.00135834
0.00136101
0.00137064
0.00137532
0.0013779
0.00138313
0.00139321
0.00138773
0.00140192
0.00142295
0.00147005
0.00146391
0.00147549
0.00149605
0.00150733
0.0015349
0.00154305
0.00157535
0.00158706
0.00162303
0.00164862
0.00168648
0.00173562
0.00177377
0.00186136
0.00191982
0.00204639
0.00214216
0.00234517
0.0013389
0.00134024
0.00134112
0.00134109
0.00134105
0.00134117
0.00134143
0.00134152
0.00134148
0.00134143
0.0013416
0.00134178
0.00134231
0.00134303
0.00134372
0.00134446
0.00134507
0.00134574
0.0013459
0.00134557
0.00134889
0.00135189
0.00135425
0.00135562
0.00135742
0.00135755
0.0013638
0.00136629
0.00136139
0.00136901
0.00137165
0.0013769
0.00136748
0.00136721
0.00137276
0.00137647
0.00138053
0.00139214
0.00137739
0.0013943
0.00137745
0.00137333
0.00136099
0.0013626
0.0013793
0.00139344
0.00139972
0.00140469
0.00141694
0.00141048
0.0014246
0.00146085
0.00149073
0.0015157
0.00153463
0.00155866
0.00157626
0.00160619
0.00162615
0.00166375
0.00169253
0.0017392
0.00178774
0.0018384
0.00193385
0.00200004
0.00214294
0.00224882
0.00245114
0.00135191
0.00135264
0.00135222
0.00135377
0.00135327
0.00135228
0.00135198
0.00135193
0.00135219
0.00135252
0.00135294
0.00135386
0.00135469
0.0013553
0.00135602
0.00135645
0.00135934
0.00135926
0.00136302
0.00136165
0.00136551
0.00136552
0.00136735
0.0013682
0.00137147
0.00136861
0.0013763
0.00138063
0.00138255
0.00137797
0.001375
0.0013707
0.00137251
0.00137614
0.00138163
0.00139792
0.00140865
0.00140582
0.00140372
0.00141374
0.00141187
0.00141517
0.00142085
0.00142703
0.00143459
0.00144294
0.00145311
0.00146678
0.00148043
0.00149657
0.00151069
0.00152691
0.00154075
0.00155924
0.00157555
0.00159813
0.00161846
0.00164633
0.00167349
0.00170923
0.00174643
0.00179807
0.00184639
0.00192281
0.0020055
0.00209297
0.00224845
0.00237118
0.00254283
0.0013642
0.00136547
0.0013651
0.00136784
0.00136675
0.00136878
0.00136802
0.00137085
0.00137235
0.00137405
0.00137456
0.00137238
0.00137521
0.00137721
0.00137842
0.00137742
0.00137877
0.00137947
0.00138159
0.00138356
0.0013844
0.00138659
0.0013859
0.00138937
0.00139236
0.0013934
0.00139911
0.00140127
0.00140001
0.00140431
0.0014057
0.00140135
0.00139917
0.00140106
0.00140346
0.0014204
0.00141736
0.00143731
0.00140894
0.00144437
0.00143391
0.00142433
0.00142425
0.00141911
0.00142709
0.00141824
0.00143028
0.00146905
0.00149979
0.00152317
0.00154114
0.00156007
0.00157632
0.00159711
0.00161522
0.0016403
0.00166307
0.00169375
0.00172606
0.00176315
0.00181156
0.00186138
0.00192643
0.00201333
0.00209037
0.0022292
0.00234232
0.00253085
0.00257796
0.00138002
0.00138157
0.00138117
0.00138478
0.00138501
0.00138299
0.00138675
0.00138768
0.00138894
0.00139145
0.00139406
0.00139567
0.00139847
0.00139624
0.00140211
0.00140283
0.0013978
0.00140233
0.00140367
0.00141063
0.00140548
0.00140086
0.00140456
0.00140245
0.00140526
0.00140276
0.00140616
0.00141099
0.00141939
0.00141543
0.00141685
0.00143078
0.00142203
0.00144172
0.00145753
0.00147006
0.00145113
0.00147192
0.00144821
0.00143401
0.00142688
0.00143297
0.0014235
0.00145593
0.0014502
0.00148678
0.00151403
0.00153522
0.00155203
0.0015693
0.00158443
0.00160332
0.0016196
0.00164268
0.00166153
0.00169094
0.00171441
0.001752
0.00178523
0.00183081
0.00188502
0.00193835
0.00202607
0.00210223
0.0022171
0.00235273
0.00248169
0.00261314
0.00292444
0.00140203
0.00140139
0.00140218
0.00140129
0.001405
0.00140138
0.00140147
0.00140034
0.00139983
0.00140138
0.00140455
0.00140477
0.00140972
0.00141508
0.00142099
0.00141807
0.00142684
0.00142991
0.00142515
0.00142773
0.00143056
0.00142365
0.00143414
0.00143689
0.00143643
0.00144284
0.00144512
0.00145255
0.00144608
0.00143106
0.00142988
0.00142827
0.00143165
0.00142231
0.00142359
0.00142622
0.00144945
0.00144099
0.00146441
0.00148138
0.00149419
0.00150635
0.00151765
0.00153036
0.00154266
0.00155617
0.00156913
0.00158387
0.00159786
0.00161512
0.00163041
0.00165152
0.00166862
0.00169566
0.00171501
0.00175116
0.00177339
0.0018232
0.00185086
0.00191854
0.00196101
0.00204797
0.00212173
0.00223551
0.00233348
0.00251668
0.00256536
0.00285406
0.0027929
0.00142717
0.00142968
0.00143049
0.00142833
0.0014333
0.00143349
0.00142885
0.00142959
0.001429
0.00142788
0.00142981
0.00143458
0.00143109
0.00143956
0.00144643
0.00144876
0.00145332
0.00145602
0.001455
0.00146737
0.00146909
0.00147029
0.00145829
0.00146139
0.0014498
0.00144067
0.00143844
0.00144374
0.00144693
0.00144329
0.00144148
0.00144544
0.00143426
0.00143697
0.00143969
0.00146991
0.00146303
0.00149289
0.00151613
0.00153259
0.00154541
0.001557
0.00156806
0.00157975
0.00159144
0.00160463
0.00161751
0.00163307
0.00164776
0.00166707
0.00168352
0.00170776
0.00172625
0.00175776
0.00177862
0.00182147
0.0018448
0.00190599
0.00193241
0.00202101
0.00205704
0.00217585
0.00224189
0.00237675
0.00249003
0.00263751
0.00274174
0.0029962
0.00294263
0.00145232
0.00145044
0.00145098
0.00146074
0.00146099
0.00146604
0.00146436
0.00146666
0.00146728
0.00146259
0.00146026
0.0014648
0.00146958
0.00147087
0.00146387
0.00146003
0.00146289
0.00146588
0.00146519
0.00146462
0.00146246
0.00146545
0.00145743
0.00145804
0.00146719
0.00146636
0.00147169
0.0014619
0.00146485
0.00146612
0.00148874
0.00148163
0.00150338
0.00152168
0.00153347
0.00154581
0.0015558
0.00156641
0.00157698
0.00158741
0.00159782
0.00160866
0.00161972
0.00163181
0.00164409
0.00165831
0.00167222
0.00168955
0.00170547
0.00172755
0.00174561
0.00177376
0.00179418
0.00183104
0.00185462
0.00190475
0.00193221
0.00200425
0.00203508
0.0021429
0.00217634
0.00232985
0.00237332
0.00255315
0.00263443
0.00278799
0.00293683
0.00304173
0.00323446
0.00149183
0.0014893
0.00149077
0.00149096
0.0014929
0.00148789
0.00149417
0.00149013
0.00148895
0.00148861
0.00149206
0.00149599
0.00149456
0.00149718
0.00149648
0.00148598
0.00147812
0.00147866
0.00148496
0.00148273
0.00148501
0.00149068
0.00148285
0.00148562
0.00149161
0.0015002
0.00149075
0.00149513
0.00149804
0.00152581
0.00152039
0.00154748
0.00156884
0.00158309
0.00159472
0.00160476
0.00161421
0.00162367
0.00163338
0.00164349
0.00165409
0.0016655
0.00167743
0.00169064
0.00170424
0.00172013
0.00173573
0.00175546
0.00177335
0.00179877
0.00181928
0.00185222
0.00187569
0.00191919
0.0019473
0.00200604
0.00204139
0.00212326
0.00216663
0.00228447
0.00232948
0.00249681
0.00253046
0.00274623
0.00276629
0.00300723
0.00302403
0.00328468
0.0032368
0.00151789
0.00153343
0.00153415
0.00153531
0.00154117
0.00154591
0.00154367
0.00155188
0.00155039
0.00154934
0.00154277
0.00155242
0.00154893
0.00155717
0.00155121
0.00155034
0.00156247
0.00155325
0.00153995
0.00154184
0.00153148
0.00152344
0.00152468
0.00151222
0.00151672
0.00152084
0.0015505
0.00154502
0.00157352
0.00159665
0.0016112
0.00162369
0.00163485
0.00164509
0.00165496
0.00166457
0.00167426
0.00168427
0.00169479
0.00170591
0.00171773
0.00173053
0.00174409
0.00175908
0.00177471
0.00179286
0.00181096
0.00183366
0.00185461
0.00188405
0.00190847
0.00194736
0.00197579
0.00202789
0.00206273
0.00213287
0.00217806
0.00227128
0.00232932
0.00245032
0.00251549
0.00266902
0.00272549
0.00291515
0.00295181
0.00316613
0.00320182
0.00338545
0.00348731
0.00157376
0.00157153
0.00156938
0.00156819
0.00156775
0.00157467
0.00157016
0.00158252
0.00158645
0.00160058
0.00160528
0.00161205
0.0016012
0.00161941
0.00162269
0.00162829
0.00159154
0.00160022
0.0015779
0.00158447
0.00157193
0.00158846
0.00160314
0.00161176
0.00162166
0.00163006
0.00164107
0.00165052
0.00166116
0.00167189
0.00168215
0.00169218
0.00170212
0.00171222
0.00172243
0.00173279
0.00174358
0.00175491
0.0017669
0.00177965
0.00179329
0.00180804
0.0018238
0.00184115
0.00185952
0.0018806
0.00190223
0.00192873
0.00195437
0.00198901
0.00201972
0.00206611
0.0021027
0.00216542
0.00220989
0.00229365
0.00234839
0.00245482
0.00252074
0.00264609
0.00272021
0.00285917
0.00293398
0.00308693
0.00315063
0.00332285
0.00336007
0.00355146
0.00350324
0.00163053
0.0016472
0.00165205
0.00166872
0.00166362
0.00165191
0.00165825
0.00163676
0.00163421
0.00163324
0.00162438
0.00162929
0.00162549
0.0016258
0.00164396
0.00163619
0.00164974
0.0016617
0.00166674
0.00167275
0.001678
0.00168491
0.00169276
0.00170059
0.0017088
0.00171713
0.00172585
0.00173477
0.00174396
0.00175342
0.00176314
0.00177313
0.00178353
0.00179426
0.00180528
0.00181678
0.00182891
0.00184177
0.0018555
0.0018702
0.00188605
0.00190326
0.00192185
0.00194232
0.00196444
0.00198955
0.00201631
0.00204816
0.0020809
0.00212265
0.00216303
0.00221892
0.00226747
0.00234151
0.00239822
0.00249357
0.00255646
0.00267213
0.00273793
0.00286754
0.00293481
0.00306987
0.00314008
0.00327192
0.00334754
0.00346223
0.00354865
0.00361399
0.0037341
0.0017079
0.0017143
0.00170693
0.00170124
0.00169128
0.00169341
0.00170449
0.00169303
0.00169287
0.00170818
0.00171763
0.00172461
0.00173147
0.00173678
0.00174375
0.00174919
0.00175525
0.0017616
0.00176759
0.00177367
0.00177994
0.00178655
0.00179356
0.00180089
0.00180858
0.0018166
0.001825
0.00183377
0.00184294
0.00185256
0.00186262
0.00187328
0.00188439
0.00189596
0.00190813
0.00192108
0.00193492
0.00194978
0.00196582
0.00198318
0.0020021
0.00202283
0.00204552
0.00207064
0.00209831
0.00212955
0.00216385
0.00220361
0.00224641
0.00229774
0.00235069
0.0024171
0.00247971
0.00256289
0.00263093
0.00273052
0.00279889
0.00291354
0.00297599
0.00310223
0.00315696
0.00329011
0.0033373
0.00347031
0.00350921
0.00362725
0.00366057
0.00372988
0.00376562
0.00181353
0.00181294
0.00180916
0.00180839
0.0018062
0.00180626
0.00180969
0.00181317
0.00181726
0.00182331
0.00182964
0.00183597
0.00184252
0.00184901
0.00185563
0.00186219
0.00186874
0.00187533
0.00188197
0.00188873
0.00189566
0.00190283
0.00191029
0.00191806
0.00192619
0.00193472
0.00194367
0.00195312
0.00196307
0.00197364
0.00198484
0.00199664
0.00200905
0.00202227
0.00203645
0.00205177
0.00206836
0.0020864
0.0021061
0.0021277
0.00215149
0.00217778
0.00220687
0.00223919
0.00227512
0.00231534
0.00235988
0.00240999
0.00246448
0.00252622
0.00259067
0.00266496
0.00273749
0.00282347
0.00289783
0.00299342
0.00306224
0.00316569
0.0032236
0.00333614
0.00338143
0.00349912
0.00352946
0.00364593
0.00365418
0.00375909
0.00373727
0.00379884
0.00373401
0.00187786
0.00187936
0.00190017
0.00189644
0.00191496
0.00192785
0.00193608
0.00194239
0.00194798
0.00195357
0.00195931
0.00196527
0.00197148
0.00197792
0.00198459
0.00199146
0.00199851
0.00200577
0.00201324
0.00202096
0.00202897
0.00203731
0.00204603
0.00205517
0.00206478
0.00207492
0.00208565
0.00209701
0.00210913
0.00212188
0.00213539
0.00214971
0.00216512
0.00218179
0.00219987
0.00221957
0.0022411
0.00226471
0.00229066
0.00231924
0.00235079
0.0023856
0.00242394
0.00246612
0.0025124
0.00256298
0.00261783
0.00267711
0.00274007
0.00280741
0.00287659
0.00295068
0.00302285
0.00310268
0.00317406
0.00325855
0.00332228
0.00341191
0.00346193
0.0035568
0.00358858
0.00368409
0.00369612
0.00378198
0.00376618
0.00382964
0.00377142
0.00378872
0.00367393
0.00206572
0.00207039
0.00207748
0.00208324
0.00208991
0.00209637
0.00210231
0.00210793
0.00211344
0.00211901
0.00212477
0.00213078
0.00213709
0.00214372
0.0021507
0.00215804
0.00216574
0.00217384
0.00218235
0.00219131
0.00220076
0.00221076
0.00222135
0.0022326
0.00224454
0.00225732
0.00227087
0.0022852
0.00230048
0.00231675
0.00233432
0.00235336
0.00237405
0.00239658
0.00242115
0.00244799
0.00247729
0.00250929
0.00254417
0.0025821
0.00262323
0.00266759
0.00271513
0.00276577
0.00281939
0.00287565
0.00293425
0.00299473
0.00305659
0.00311964
0.0031828
0.0032472
0.00330971
0.00337537
0.00343492
0.00350327
0.00355617
0.00362779
0.0036653
0.00374059
0.00375385
0.00382691
0.00380981
0.00386456
0.00381009
0.00383402
0.00371532
0.00369972
0.00343189
0.00228802
0.00229273
0.0022977
0.00230285
0.00230811
0.00231341
0.00231876
0.00232421
0.00232983
0.00233569
0.00234186
0.0023484
0.00235536
0.00236281
0.00237077
0.0023793
0.00238844
0.00239824
0.00240875
0.00242004
0.00243214
0.00244516
0.00245911
0.00247395
0.00248976
0.00250671
0.00252485
0.00254441
0.00256556
0.00258842
0.00261312
0.00263978
0.00266853
0.00269946
0.00273265
0.00276814
0.00280594
0.00284601
0.00288826
0.00293255
0.00297869
0.00302638
0.00307532
0.00312516
0.00317566
0.00322639
0.00327718
0.00332765
0.00337775
0.00342728
0.0034761
0.0035246
0.00357159
0.00361944
0.00366313
0.00371112
0.00374728
0.00379701
0.00381671
0.00386721
0.00385556
0.00390186
0.00384755
0.00386682
0.00376758
0.00373225
0.00357062
0.00343254
0.0031406
0.00259919
0.00260659
0.00261381
0.00262109
0.00262836
0.00263561
0.00264292
0.00265035
0.00265798
0.00266588
0.00267411
0.00268276
0.00269191
0.00270163
0.00271198
0.00272311
0.00273494
0.00274753
0.00276096
0.00277535
0.00279079
0.0028074
0.00282524
0.00284452
0.0028653
0.00288762
0.00291153
0.00293703
0.00296415
0.00299286
0.00302313
0.0030549
0.00308809
0.00312257
0.00315821
0.00319481
0.00323219
0.00327013
0.00330839
0.00334673
0.00338494
0.00342275
0.00345998
0.00349647
0.00353219
0.003567
0.003601
0.00363409
0.00366645
0.00369797
0.00372876
0.00375877
0.00378747
0.00381551
0.00384016
0.00386538
0.00388104
0.00390262
0.00389961
0.00391867
0.00387599
0.00388998
0.00378465
0.00377597
0.00359767
0.00353279
0.00322631
0.00306107
0.00254811
0.0030557
0.00306678
0.00307787
0.00308921
0.00310059
0.00311201
0.00312355
0.00313527
0.00314724
0.00315955
0.00317225
0.00318542
0.00319914
0.00321348
0.00322856
0.00324447
0.00326123
0.00327885
0.00329729
0.00331666
0.00333651
0.00335683
0.00337762
0.00339888
0.0034206
0.00344276
0.00346532
0.00348825
0.00351147
0.00353491
0.00355847
0.00358205
0.00360552
0.00362876
0.00365165
0.00367404
0.00369583
0.00371691
0.00373719
0.00375662
0.00377517
0.00379281
0.00380958
0.00382554
0.00384079
0.00385537
0.00386938
0.00388282
0.0038957
0.00390786
0.00391912
0.00392915
0.00393738
0.00394335
0.00394575
0.00394481
0.00393564
0.00392467
0.00389438
0.00387271
0.00379811
0.00376442
0.00361334
0.00355477
0.00330506
0.00311637
0.00278482
0.00250645
0.00214116
0.00381769
0.0038371
0.00385571
0.00387371
0.00389096
0.00390744
0.00392316
0.00393815
0.00395245
0.00396608
0.00397907
0.00399148
0.00400334
0.00401468
0.00402566
0.00403578
0.00404507
0.00405359
0.00406137
0.00406843
0.0040751
0.00408137
0.00408722
0.00409263
0.00409759
0.00410205
0.00410599
0.00410939
0.00411219
0.00411437
0.00411588
0.00411668
0.00411674
0.00411603
0.00411452
0.00411224
0.00410921
0.00410547
0.00410112
0.00409623
0.00409095
0.00408536
0.00407956
0.00407366
0.00406769
0.00406165
0.00405541
0.00404889
0.00404167
0.00403357
0.00402373
0.00401198
0.00399693
0.0039783
0.0039545
0.00392418
0.00388517
0.00383863
0.00377702
0.00370926
0.00359968
0.00351259
0.00330142
0.00314179
0.00280813
0.0025786
0.00221674
0.00195124
0.00176216
0.00474718
0.00476175
0.00477445
0.00478545
0.00479463
0.00480204
0.00480771
0.0048117
0.00481402
0.00481468
0.00481375
0.00481135
0.00480751
0.00480228
0.00479561
0.00478791
0.00477919
0.00476947
0.00475876
0.00474706
0.00473442
0.00472085
0.00470636
0.00469097
0.00467468
0.00465748
0.00463936
0.00462033
0.00460035
0.00457942
0.00455751
0.00453462
0.00451068
0.00448577
0.0044598
0.004433
0.00440536
0.00437699
0.00434821
0.0043194
0.00429089
0.00426289
0.00423546
0.00420863
0.0041822
0.00415604
0.00412962
0.0041028
0.00407462
0.00404486
0.00401204
0.00397664
0.00393586
0.00389099
0.00383746
0.0037757
0.00370365
0.00362372
0.00352918
0.00340731
0.00322849
0.00304411
0.00278022
0.00254962
0.00220667
0.00197046
0.00164518
0.00143465
0.0012545
0.00526462
0.00527053
0.00527488
0.00527771
0.00527891
0.00527872
0.00527692
0.00527416
0.0052695
0.00526257
0.00525407
0.00524514
0.00523493
0.00522332
0.00521021
0.00519555
0.00517936
0.00516164
0.00514244
0.00512181
0.00509979
0.00507637
0.00505164
0.00502558
0.00499815
0.00496942
0.00493932
0.0049079
0.00487507
0.00484082
0.00480491
0.00476729
0.00472751
0.00468585
0.00464141
0.00459525
0.00454516
0.00449159
0.00443708
0.00438335
0.0043313
0.00428121
0.00423291
0.00418612
0.00414017
0.00409465
0.00404854
0.00400166
0.00395251
0.00390034
0.00384532
0.00378795
0.00372377
0.00365405
0.00356921
0.00347727
0.00335977
0.00322316
0.00305985
0.00286198
0.00264003
0.00240929
0.00213419
0.00187462
0.00158635
0.00138839
0.00116391
0.00113721
0.00110735
0.00532317
0.00532277
0.00532109
0.00531785
0.00531326
0.00530967
0.0053037
0.00530979
0.00530262
0.00528421
0.0052691
0.00527332
0.00526683
0.00525811
0.00524732
0.00523458
0.00522001
0.00520376
0.00518587
0.00516667
0.00514606
0.00512363
0.00510045
0.00507524
0.00504769
0.00501883
0.00498735
0.00495494
0.00492116
0.00488667
0.00485008
0.00481024
0.00476689
0.00471941
0.00466728
0.00460679
0.00451371
0.00440794
0.00431203
0.00422619
0.00414894
0.00407837
0.00401238
0.00394931
0.00388748
0.00382594
0.0037632
0.00369925
0.00363167
0.00355945
0.00349259
0.00340758
0.00330895
0.00319435
0.00305524
0.00290871
0.00274995
0.00257771
0.00238459
0.00217589
0.00192621
0.00167608
0.00144473
0.00124666
0.00108248
0.000985347
0.00098752
0.00103955
0.00113256
0.00490986
0.00489969
0.00489219
0.00487953
0.00486956
0.00485426
0.00484309
0.00482851
0.00481422
0.00479031
0.00475766
0.00472606
0.00469464
0.00466328
0.00463186
0.00460031
0.00456875
0.00453722
0.0045059
0.00447633
0.00444681
0.00441838
0.0044065
0.00438136
0.00434778
0.00431733
0.00426513
0.00422722
0.00419318
0.00418086
0.00415943
0.00412723
0.0040864
0.00404084
0.00399009
0.00393528
0.00387548
0.00381143
0.00374543
0.00367893
0.00361269
0.00354702
0.00348126
0.00341473
0.00334621
0.00327485
0.00319896
0.00311784
0.00302874
0.00293021
0.00282233
0.00270764
0.00258409
0.00245134
0.0023076
0.00216379
0.00200339
0.00179908
0.00157818
0.00136593
0.00119416
0.00103893
0.000917739
0.000835246
0.000845264
0.000899532
0.000985937
0.00111738
0.00121814
0.00391709
0.00389627
0.00387504
0.00385362
0.00383172
0.00380895
0.0037857
0.00376153
0.00373706
0.00371114
0.00368361
0.00365487
0.00362514
0.00359471
0.00356371
0.00353231
0.00350059
0.00346867
0.00343663
0.00340467
0.00337268
0.00334062
0.00330877
0.00327659
0.00324407
0.00321137
0.00317816
0.00314511
0.00311215
0.0030798
0.0030484
0.00302691
0.0029956
0.00298429
0.00296545
0.00293419
0.00289579
0.00285332
0.002808
0.0027611
0.0027124
0.00266043
0.00260397
0.0025423
0.00247444
0.00240021
0.00231851
0.00222959
0.00213212
0.00202644
0.00191337
0.00179018
0.00166109
0.00152403
0.00138466
0.00125277
0.00113533
0.000997865
0.000855506
0.000760957
0.0006919
0.000678733
0.000727049
0.00080114
0.00091331
0.00102586
0.00116589
0.00127801
0.00136367
0.00215324
0.00213722
0.00212129
0.00211447
0.00210308
0.00208686
0.00207132
0.00204828
0.00203303
0.00201011
0.00199054
0.00197164
0.00195208
0.00193308
0.00191422
0.00189594
0.00187719
0.00185884
0.00184018
0.00182148
0.00180275
0.00178389
0.00176514
0.00174601
0.00172705
0.00170812
0.00168918
0.00167011
0.00165087
0.00163153
0.00161188
0.00159239
0.00157241
0.00155226
0.00153142
0.0015099
0.00148751
0.0014637
0.0014361
0.00140428
0.00137672
0.00134232
0.00129862
0.00124674
0.00118996
0.00112881
0.00106642
0.00100265
0.00094064
0.000879404
0.000822556
0.0007685
0.000720811
0.000676147
0.000634913
0.00060424
0.000572022
0.000555918
0.000577729
0.000612279
0.000664637
0.000722525
0.000804224
0.000890277
0.000993803
0.00110454
0.001209
0.00128983
0.00135694
0.000388851
0.000391572
0.000387731
0.000386686
0.00039297
0.000389973
0.000395814
0.000391907
0.000392841
0.000392273
0.000397694
0.000402354
0.000397165
0.000402069
0.00040059
0.000406595
0.000402424
0.00040739
0.000405004
0.00040434
0.000405877
0.000404718
0.000411225
0.000410755
0.000411897
0.00041269
0.000413136
0.00041356
0.000414078
0.000414722
0.000415443
0.000416234
0.000417055
0.000417906
0.00041876
0.000419606
0.000420448
0.000421246
0.000422043
0.000422794
0.000423506
0.000424137
0.000424663
0.000425035
0.000425226
0.00042521
0.000424937
0.000424381
0.000423457
0.000422136
0.000420312
0.000417981
0.000415068
0.00041158
0.000407309
0.000402268
0.000396059
0.000388146
0.000378737
0.00036717
0.000354092
0.000338264
0.000322381
0.000303653
0.000296726
0.000299238
0.000315094
0.000334436
0.000364641
0.00133557
0.00133399
0.00133343
0.00133251
0.00133105
0.00133016
0.00132733
0.00132441
0.00132367
0.0013208
0.00131877
0.00131372
0.00131346
0.00131419
0.00131509
0.0013139
0.00131449
0.00131533
0.00131562
0.00131523
0.00131718
0.00131887
0.00131807
0.00131827
0.00132062
0.00132243
0.00132448
0.00132532
0.00132616
0.00132504
0.00132319
0.00132311
0.00132411
0.0013249
0.00132568
0.00132533
0.00132481
0.00132445
0.00132264
0.001322
0.00131982
0.0013207
0.00132149
0.00132096
0.00132085
0.00131934
0.00131875
0.00131893
0.00131823
0.0013164
0.00131461
0.00131407
0.00131533
0.00131617
0.00131694
0.00131714
0.00131702
0.00131637
0.00131554
0.00133932
0.00133821
0.00133727
0.0013362
0.00133374
0.00133276
0.00132909
0.00132808
0.00132479
0.00132202
0.00132205
0.00132004
0.00132056
0.00132039
0.00132096
0.001322
0.00132149
0.00132187
0.00132291
0.00132345
0.00132459
0.00132538
0.00132465
0.00132549
0.00132768
0.00132931
0.00133084
0.00133157
0.00133213
0.00133097
0.0013294
0.00132931
0.00132989
0.00133086
0.00133166
0.00133145
0.00133097
0.00133065
0.00132973
0.00132891
0.00132613
0.00132632
0.00132659
0.00132702
0.00132721
0.00132639
0.00132545
0.00132556
0.00132483
0.00132544
0.00132377
0.0013217
0.00132053
0.00132046
0.00132091
0.00132147
0.00132212
0.00132266
0.00132289
0.00134474
0.00134334
0.00134235
0.00134128
0.0013381
0.00133489
0.00133381
0.0013327
0.00133018
0.00133014
0.00132901
0.00132903
0.00132971
0.00132967
0.00133065
0.00133037
0.00133026
0.00133029
0.00133087
0.00133264
0.00133247
0.00133259
0.00133239
0.00133359
0.00133587
0.00133742
0.00133824
0.00133926
0.00133906
0.00133811
0.00133633
0.00133598
0.00133587
0.00133756
0.00133852
0.00133856
0.00133755
0.00133744
0.00133681
0.00133691
0.00133435
0.00133329
0.00133323
0.00133335
0.00133385
0.00133389
0.00133307
0.00133296
0.00133241
0.00133246
0.00133265
0.0013319
0.0013308
0.00132947
0.00132869
0.00132832
0.00132844
0.00132878
0.00132926
0.00134938
0.00134823
0.00134541
0.00134379
0.00134473
0.00134222
0.00134263
0.00134246
0.00134116
0.00134027
0.00134095
0.00134081
0.00134003
0.00133913
0.00133896
0.00133891
0.00133937
0.0013411
0.00134354
0.00134197
0.00134203
0.001342
0.00134149
0.00134268
0.00134521
0.00134623
0.00134692
0.00134775
0.00134752
0.00134661
0.00134509
0.00134478
0.001345
0.00134572
0.00134665
0.00134685
0.0013466
0.00134595
0.00134523
0.00134581
0.0013438
0.00134211
0.00134161
0.00134154
0.0013418
0.00134232
0.00134207
0.00134194
0.00134156
0.00134131
0.00134145
0.00134155
0.00134125
0.00134048
0.00133951
0.00133862
0.00133789
0.00133773
0.00133887
0.00136096
0.00135972
0.00135865
0.00135977
0.001358
0.00135704
0.00135481
0.00135301
0.00135011
0.00135172
0.00135051
0.00134917
0.00135101
0.00135036
0.00135202
0.00135194
0.0013514
0.00135254
0.00135264
0.00135261
0.00135244
0.00135215
0.0013522
0.00135318
0.00135578
0.00135618
0.00135685
0.00135765
0.00135724
0.00135635
0.00135486
0.00135445
0.00135457
0.00135528
0.00135619
0.00135645
0.00135633
0.00135582
0.00135508
0.0013555
0.00135455
0.00135275
0.00135172
0.00135135
0.00135114
0.00135168
0.00135191
0.00135202
0.00135193
0.00135176
0.00135174
0.00135198
0.0013522
0.00135213
0.00135176
0.00135103
0.00135058
0.00134925
0.00135087
0.00137592
0.00137327
0.00137401
0.00137389
0.00137478
0.00137104
0.00137281
0.00137109
0.00137216
0.00137069
0.00136903
0.00136763
0.00136863
0.0013687
0.00136779
0.00136615
0.00136646
0.00136526
0.0013655
0.0013656
0.00136546
0.0013652
0.00136542
0.00136667
0.00136819
0.00136849
0.001369
0.00136958
0.00136889
0.00136802
0.00136651
0.001366
0.00136609
0.00136675
0.00136772
0.00136804
0.00136808
0.00136779
0.0013672
0.00136728
0.00136752
0.00136558
0.00136436
0.0013639
0.00136337
0.00136331
0.00136381
0.00136421
0.00136429
0.0013642
0.00136411
0.00136426
0.00136458
0.00136489
0.0013651
0.00136489
0.00136472
0.00136404
0.00136379
0.00140435
0.00140426
0.00140229
0.00140034
0.00139743
0.00139406
0.001393
0.00139213
0.00139221
0.00139
0.00138902
0.00138632
0.00138547
0.0013843
0.00138297
0.00138289
0.00138284
0.0013829
0.0013826
0.00138117
0.00138089
0.00137946
0.00138005
0.00138106
0.00138208
0.00138244
0.00138294
0.00138338
0.0013827
0.00138181
0.0013803
0.00137967
0.00137971
0.00138023
0.00138134
0.00138168
0.0013818
0.00138167
0.00138119
0.001381
0.00138153
0.00138108
0.00137907
0.00137815
0.00137814
0.00137754
0.00137721
0.00137776
0.00137859
0.00137918
0.00137948
0.00137952
0.00137969
0.00137992
0.00138012
0.00138047
0.00138043
0.00138008
0.00137993
0.00143323
0.00143235
0.00142926
0.00142636
0.00142258
0.00142297
0.00142146
0.00141922
0.00141615
0.00141049
0.00140965
0.00140563
0.0014047
0.00140368
0.00140327
0.00140291
0.00140272
0.00140229
0.00140151
0.00140011
0.00139872
0.001398
0.00139864
0.00139924
0.00139971
0.00140003
0.0014003
0.00140058
0.00139946
0.00139842
0.00139689
0.00139619
0.00139623
0.00139662
0.00139788
0.00139848
0.00139855
0.00139883
0.00139883
0.00139853
0.00139878
0.00139914
0.00139797
0.0013965
0.00139556
0.00139671
0.00139648
0.00139542
0.00139447
0.00139423
0.00139477
0.00139562
0.00139628
0.00139683
0.00139768
0.001397
0.00139953
0.00140087
0.00140079
0.00145752
0.00145639
0.00145538
0.00145241
0.00144546
0.00144473
0.00143824
0.00143675
0.00143445
0.00143192
0.00143052
0.0014288
0.00142765
0.00142692
0.00142645
0.0014259
0.00142539
0.00142423
0.0014225
0.00142076
0.00141934
0.00141876
0.00141899
0.0014192
0.00141937
0.00141982
0.00142021
0.00142052
0.00141924
0.00141814
0.00141655
0.00141581
0.00141577
0.00141605
0.00141712
0.0014183
0.00141839
0.00141871
0.00141884
0.00141883
0.00141912
0.00142
0.00142026
0.00141819
0.00141745
0.00141772
0.00141897
0.00141988
0.00142119
0.00142173
0.00141985
0.00141987
0.00142021
0.00142097
0.00142204
0.00142222
0.00142509
0.00142557
0.00142427
0.00149157
0.00148644
0.00147781
0.00147535
0.00147196
0.00146607
0.00146447
0.00146277
0.00146125
0.0014598
0.0014587
0.00145764
0.00145664
0.00145584
0.00145502
0.00145402
0.00145271
0.00145069
0.00144853
0.00144704
0.00144585
0.00144526
0.00144527
0.0014454
0.00144572
0.00144562
0.00144564
0.00144537
0.00144352
0.00144222
0.00144055
0.00143981
0.00143978
0.00144012
0.00144102
0.00144249
0.00144337
0.00144376
0.00144394
0.00144396
0.00144475
0.00144526
0.00144635
0.00144761
0.0014462
0.00144401
0.00144008
0.00144257
0.00144314
0.00144219
0.00144378
0.00145052
0.00145174
0.00145392
0.00145225
0.00145045
0.00145141
0.00145158
0.00145196
0.00151225
0.00150956
0.00150686
0.0015048
0.00150278
0.00150105
0.0014997
0.00149841
0.00149714
0.00149582
0.00149448
0.00149301
0.00149135
0.00148976
0.00148803
0.00148607
0.00148379
0.00148121
0.0014791
0.00147757
0.00147599
0.00147494
0.0014745
0.00147437
0.00147455
0.00147428
0.00147437
0.00147403
0.00147217
0.00147084
0.00146911
0.00146831
0.00146819
0.00146848
0.00146929
0.00147056
0.00147202
0.00147263
0.00147302
0.00147388
0.00147248
0.00147515
0.00147658
0.00147775
0.00147921
0.00148025
0.00148013
0.00147706
0.00147633
0.00147308
0.00147571
0.00147775
0.00147672
0.00148247
0.00148162
0.00148645
0.00148928
0.00149229
0.00149022
0.00155589
0.0015544
0.00155235
0.0015507
0.0015489
0.00154713
0.00154529
0.00154334
0.00154131
0.00153913
0.00153687