/*--------------------------------*- C++ -*----------------------------------*\
| =========                 |                                                 |
| \\      /  F ield         | OpenFOAM: The Open Source CFD Toolbox           |
|  \\    /   O peration     | Version:  2312                                  |
|   \\  /    A nd           | Website:  www.openfoam.com                      |
|    \\/     M anipulation  |                                                 |
\*---------------------------------------------------------------------------*/
FoamFile
{
    version     2.0;
    format      ascii;
    arch        "LSB;label=32;scalar=64";
    class       volScalarField;
    location    "1000";
    object      p;
}
// * * * * * * * * * * * * * * * * * * * * * * * * * * * * * * * * * * * * * //

dimensions      [0 2 -2 0 0 0 0];

internalField   nonuniform List<scalar> 
76025
(
0.00646743
0.000375163
-0.00581384
-0.0120736
-0.0183035
-0.0246389
-0.0311419
-0.0374852
-0.0439839
-0.050409
-0.056851
-0.0633025
-0.0697717
-0.0761946
-0.0826913
-0.0891107
-0.0954212
-0.101743
-0.108038
-0.114199
-0.120257
-0.126356
-0.132258
-0.137975
-0.143584
-0.148985
-0.154426
-0.159697
-0.164585
-0.169581
-0.174283
-0.178515
-0.182628
-0.186456
-0.19008
-0.193436
-0.196388
-0.199386
-0.201823
-0.203901
-0.205566
-0.206924
-0.20825
-0.208892
-0.209231
-0.209112
-0.208807
-0.207928
-0.206494
-0.204798
-0.20279
-0.200284
-0.197342
-0.193977
-0.190167
-0.185562
-0.180992
-0.175648
-0.169988
-0.164056
-0.157741
-0.150659
-0.143057
-0.135423
-0.127306
-0.118223
-0.109538
-0.10064
-0.0899382
0.00499054
-0.00145383
-0.00793249
-0.0145053
-0.0211488
-0.0278685
-0.0346038
-0.0413652
-0.0481654
-0.054967
-0.0617798
-0.068592
-0.075407
-0.0822122
-0.0889736
-0.0956763
-0.102377
-0.108995
-0.115611
-0.122109
-0.128565
-0.134888
-0.141068
-0.14709
-0.153003
-0.158795
-0.16445
-0.169869
-0.175091
-0.180134
-0.184949
-0.189585
-0.193963
-0.19802
-0.201863
-0.205411
-0.208676
-0.211641
-0.214227
-0.216496
-0.218387
-0.219958
-0.22119
-0.221952
-0.222354
-0.222367
-0.22202
-0.221186
-0.219907
-0.218286
-0.216292
-0.213839
-0.210938
-0.207594
-0.203772
-0.19943
-0.194755
-0.189575
-0.183977
-0.177998
-0.171642
-0.164711
-0.15726
-0.149522
-0.141385
-0.132696
-0.123849
-0.114709
-0.104635
0.0030814
-0.0036984
-0.010526
-0.0174687
-0.0245032
-0.0315766
-0.0386814
-0.0458228
-0.0529903
-0.0601774
-0.0673713
-0.0745633
-0.0817504
-0.088917
-0.0960399
-0.103132
-0.11018
-0.117175
-0.124107
-0.130964
-0.13772
-0.144351
-0.150856
-0.157228
-0.163464
-0.169552
-0.175453
-0.181155
-0.186663
-0.191956
-0.197048
-0.201915
-0.2065
-0.210799
-0.214821
-0.218547
-0.22196
-0.225047
-0.227802
-0.23021
-0.232243
-0.233901
-0.235184
-0.236076
-0.236576
-0.236675
-0.236372
-0.235641
-0.234482
-0.232916
-0.230941
-0.228528
-0.225667
-0.222354
-0.218582
-0.214338
-0.209671
-0.204561
-0.199016
-0.19306
-0.186681
-0.179828
-0.172511
-0.164813
-0.15673
-0.148214
-0.139364
-0.130243
-0.120378
0.00092117
-0.00623172
-0.0134455
-0.0207802
-0.0282033
-0.0356756
-0.0431806
-0.0507136
-0.0582697
-0.0658443
-0.0734285
-0.0810125
-0.0885862
-0.0961379
-0.103656
-0.111132
-0.118557
-0.12592
-0.133208
-0.140408
-0.147502
-0.154479
-0.161329
-0.168036
-0.174588
-0.180971
-0.18717
-0.193172
-0.198964
-0.204533
-0.209869
-0.214952
-0.21976
-0.224278
-0.228498
-0.232407
-0.235995
-0.239252
-0.242163
-0.244706
-0.246867
-0.248642
-0.250034
-0.251034
-0.251629
-0.251816
-0.25159
-0.250941
-0.24986
-0.248352
-0.246419
-0.244051
-0.241235
-0.237967
-0.234243
-0.230064
-0.225444
-0.220388
-0.214896
-0.208978
-0.202634
-0.195849
-0.188623
-0.180994
-0.172978
-0.164579
-0.155821
-0.146831
-0.137218
-0.00143384
-0.00898547
-0.0166011
-0.024344
-0.0321787
-0.0400669
-0.0479877
-0.0559343
-0.0639046
-0.0718937
-0.0798921
-0.0878883
-0.0958708
-0.103829
-0.111752
-0.119629
-0.127449
-0.135201
-0.142872
-0.150447
-0.157913
-0.165257
-0.172464
-0.179518
-0.186408
-0.193118
-0.199637
-0.205947
-0.212035
-0.217887
-0.223489
-0.228825
-0.23388
-0.238635
-0.24308
-0.247202
-0.25099
-0.25443
-0.257505
-0.2602
-0.262505
-0.264413
-0.265924
-0.26703
-0.267726
-0.268003
-0.267857
-0.26728
-0.266267
-0.264818
-0.262933
-0.260608
-0.257835
-0.25461
-0.250933
-0.246805
-0.242234
-0.237227
-0.231784
-0.225914
-0.219618
-0.212896
-0.205749
-0.198203
-0.190272
-0.181977
-0.173337
-0.164482
-0.155085
-0.00404159
-0.0120162
-0.0200566
-0.028232
-0.0365043
-0.0448322
-0.0531937
-0.0615819
-0.0699945
-0.0784257
-0.0868651
-0.0953003
-0.103719
-0.112111
-0.120464
-0.128768
-0.13701
-0.145178
-0.153258
-0.161236
-0.169097
-0.176827
-0.184411
-0.191835
-0.199085
-0.206145
-0.213001
-0.219638
-0.226039
-0.232191
-0.23808
-0.243688
-0.249001
-0.254003
-0.25868
-0.263019
-0.267008
-0.270631
-0.273876
-0.276729
-0.27918
-0.281221
-0.282851
-0.284065
-0.284857
-0.285222
-0.285155
-0.284649
-0.283703
-0.282314
-0.280481
-0.278202
-0.275473
-0.272292
-0.26866
-0.26458
-0.260058
-0.255099
-0.249708
-0.243892
-0.237654
-0.231
-0.223933
-0.216476
-0.208637
-0.200453
-0.191927
-0.183195
-0.17388
-0.00696471
-0.0153893
-0.0238833
-0.0325204
-0.0412593
-0.0500559
-0.0588868
-0.0677446
-0.0766266
-0.0855268
-0.0944344
-0.103336
-0.11222
-0.121073
-0.129884
-0.13864
-0.147328
-0.155936
-0.164448
-0.17285
-0.181128
-0.189266
-0.197249
-0.205062
-0.21269
-0.220116
-0.227327
-0.234305
-0.241036
-0.247503
-0.253691
-0.259585
-0.265168
-0.270426
-0.275344
-0.279908
-0.284106
-0.287923
-0.291348
-0.294365
-0.296966
-0.299144
-0.300896
-0.30222
-0.303112
-0.303567
-0.30358
-0.303148
-0.302267
-0.300937
-0.299155
-0.296922
-0.294236
-0.291098
-0.287509
-0.283474
-0.278999
-0.274089
-0.268752
-0.262993
-0.256819
-0.250237
-0.243255
-0.235894
-0.22816
-0.220099
-0.211689
-0.203079
-0.193789
-0.0102441
-0.0191479
-0.0281249
-0.0372534
-0.0464887
-0.0557836
-0.0651134
-0.0744699
-0.08385
-0.0932478
-0.102652
-0.112048
-0.121423
-0.130765
-0.140059
-0.149294
-0.158455
-0.167528
-0.176498
-0.18535
-0.194068
-0.202638
-0.211043
-0.219266
-0.227292
-0.235105
-0.242689
-0.250027
-0.257103
-0.2639
-0.270403
-0.276596
-0.282464
-0.28799
-0.293161
-0.297961
-0.302378
-0.306399
-0.310009
-0.313198
-0.315954
-0.318272
-0.32015
-0.321588
-0.322582
-0.323127
-0.323221
-0.322859
-0.32204
-0.320764
-0.319031
-0.316841
-0.314196
-0.311097
-0.307549
-0.303557
-0.299127
-0.294267
-0.288984
-0.283285
-0.27718
-0.270675
-0.263786
-0.25653
-0.248922
-0.241001
-0.232745
-0.224282
-0.215036
-0.0139257
-0.0233396
-0.0328305
-0.0424815
-0.0522442
-0.0620684
-0.071928
-0.0818143
-0.0917243
-0.101651
-0.111583
-0.121504
-0.131401
-0.141259
-0.151067
-0.160809
-0.170471
-0.180039
-0.189495
-0.198825
-0.208012
-0.217039
-0.22589
-0.234548
-0.242996
-0.251217
-0.259195
-0.266912
-0.274351
-0.281496
-0.28833
-0.294837
-0.301001
-0.306806
-0.312238
-0.317283
-0.321928
-0.326158
-0.329962
-0.333327
-0.336244
-0.338707
-0.340716
-0.342269
-0.343365
-0.343999
-0.344169
-0.343874
-0.343113
-0.341887
-0.340198
-0.338048
-0.335439
-0.332376
-0.328866
-0.324913
-0.320526
-0.315714
-0.310485
-0.304848
-0.298815
-0.292395
-0.28561
-0.27847
-0.271004
-0.263244
-0.255187
-0.246977
-0.23824
-0.0180748
-0.0280311
-0.0380682
-0.0482749
-0.0585993
-0.0689874
-0.0794111
-0.0898613
-0.100335
-0.110824
-0.121316
-0.131795
-0.142245
-0.152654
-0.163006
-0.173287
-0.183482
-0.193574
-0.203547
-0.213383
-0.223066
-0.232577
-0.2419
-0.251018
-0.259911
-0.268564
-0.276957
-0.285074
-0.292897
-0.300408
-0.30759
-0.314426
-0.320901
-0.327
-0.332706
-0.338005
-0.342886
-0.347334
-0.351337
-0.354882
-0.357962
-0.360572
-0.36271
-0.364377
-0.365571
-0.36629
-0.366532
-0.366299
-0.36559
-0.364408
-0.362757
-0.360639
-0.358061
-0.355029
-0.351549
-0.34763
-0.343282
-0.338515
-0.333339
-0.327766
-0.32181
-0.315485
-0.308813
-0.301804
-0.294496
-0.2869
-0.279047
-0.271058
-0.262689
-0.0227642
-0.0332981
-0.0439168
-0.0547152
-0.0656375
-0.0766264
-0.0876513
-0.0987021
-0.109775
-0.120863
-0.131952
-0.143025
-0.154067
-0.16506
-0.175992
-0.186845
-0.197603
-0.208251
-0.218769
-0.229142
-0.239349
-0.249374
-0.259197
-0.2688
-0.278165
-0.287273
-0.296105
-0.304643
-0.312869
-0.320765
-0.328313
-0.335497
-0.3423
-0.348706
-0.354699
-0.360265
-0.36539
-0.370062
-0.374268
-0.377996
-0.381241
-0.383995
-0.386261
-0.388037
-0.389325
-0.390123
-0.390431
-0.390251
-0.389586
-0.388439
-0.386817
-0.384723
-0.382166
-0.379155
-0.375697
-0.371805
-0.367489
-0.362762
-0.357638
-0.352132
-0.34626
-0.340041
-0.333494
-0.326636
-0.319497
-0.312081
-0.304415
-0.296579
-0.28831
-0.0280735
-0.0392245
-0.0504637
-0.061893
-0.0734529
-0.0850814
-0.0967466
-0.108437
-0.12015
-0.131875
-0.1436
-0.155305
-0.166975
-0.178591
-0.190138
-0.2016
-0.21296
-0.2242
-0.2353
-0.246241
-0.257005
-0.267572
-0.277923
-0.28804
-0.297902
-0.30749
-0.316785
-0.325768
-0.33442
-0.342722
-0.350657
-0.358206
-0.365352
-0.372078
-0.378369
-0.38421
-0.389588
-0.39449
-0.398902
-0.402816
-0.406224
-0.409122
-0.411511
-0.413392
-0.414767
-0.415635
-0.415999
-0.415863
-0.415229
-0.414105
-0.412498
-0.410415
-0.407867
-0.404863
-0.401416
-0.397539
-0.393248
-0.388557
-0.383484
-0.378049
-0.372269
-0.366168
-0.359761
-0.353075
-0.346122
-0.338931
-0.331486
-0.323861
-0.315208
-0.0341057
-0.0459148
-0.0578155
-0.0699163
-0.0821536
-0.0944619
-0.106808
-0.119181
-0.131575
-0.14398
-0.156381
-0.168761
-0.181099
-0.193379
-0.205584
-0.217696
-0.229695
-0.241563
-0.253281
-0.264826
-0.276181
-0.287325
-0.298238
-0.308899
-0.319288
-0.329386
-0.339172
-0.348625
-0.357727
-0.366457
-0.374797
-0.382727
-0.390231
-0.397291
-0.403891
-0.410016
-0.415653
-0.420789
-0.42541
-0.42951
-0.43308
-0.436117
-0.438623
-0.440601
-0.442052
-0.442979
-0.443386
-0.443277
-0.44266
-0.441541
-0.439932
-0.437842
-0.435283
-0.432271
-0.42882
-0.424946
-0.42067
-0.416011
-0.41099
-0.405629
-0.39995
-0.393976
-0.387726
-0.381229
-0.37449
-0.367559
-0.360394
-0.353189
-0.345522
-0.0409737
-0.053486
-0.0660934
-0.0789123
-0.0918741
-0.10491
-0.117982
-0.131078
-0.144195
-0.157323
-0.170445
-0.183541
-0.196592
-0.209579
-0.222483
-0.235284
-0.247964
-0.260502
-0.272876
-0.285067
-0.297052
-0.30881
-0.320321
-0.331562
-0.342513
-0.353151
-0.363456
-0.373407
-0.382983
-0.392163
-0.400928
-0.409258
-0.417135
-0.424542
-0.431462
-0.43788
-0.443782
-0.449154
-0.453986
-0.458269
-0.461997
-0.465166
-0.46778
-0.469842
-0.471356
-0.472325
-0.472756
-0.472655
-0.472032
-0.470897
-0.469262
-0.467142
-0.464552
-0.46151
-0.458037
-0.454154
-0.449883
-0.44525
-0.440278
-0.434992
-0.429419
-0.42358
-0.417504
-0.41121
-0.404719
-0.398064
-0.391191
-0.384274
-0.376537
-0.0488158
-0.0620806
-0.0754434
-0.0890293
-0.102765
-0.116574
-0.130419
-0.144287
-0.158176
-0.172075
-0.185965
-0.199825
-0.213634
-0.227372
-0.241021
-0.254558
-0.267964
-0.281215
-0.29429
-0.307167
-0.319823
-0.332235
-0.344382
-0.356239
-0.367786
-0.378998
-0.389853
-0.40033
-0.410406
-0.420061
-0.429272
-0.438021
-0.446289
-0.454056
-0.461307
-0.468025
-0.474197
-0.479808
-0.48485
-0.489311
-0.493189
-0.49648
-0.499188
-0.501318
-0.502875
-0.503865
-0.504296
-0.504176
-0.503519
-0.502338
-0.500649
-0.498472
-0.495825
-0.492732
-0.489217
-0.485307
-0.481028
-0.47641
-0.471479
-0.466264
-0.460795
-0.455096
-0.449202
-0.443131
-0.436921
-0.430584
-0.42414
-0.417722
-0.411082
-0.0578058
-0.0718727
-0.0860401
-0.100443
-0.115001
-0.129636
-0.144307
-0.159003
-0.173716
-0.188437
-0.203146
-0.21782
-0.232438
-0.246977
-0.261418
-0.275738
-0.289916
-0.303927
-0.317749
-0.331356
-0.344726
-0.357835
-0.370657
-0.38317
-0.395349
-0.40717
-0.418609
-0.429642
-0.440248
-0.450402
-0.460084
-0.469273
-0.477947
-0.486089
-0.493681
-0.500707
-0.507153
-0.513004
-0.51825
-0.522884
-0.526901
-0.530299
-0.533082
-0.535258
-0.536833
-0.537815
-0.538214
-0.538043
-0.537318
-0.536058
-0.534282
-0.532015
-0.529281
-0.52611
-0.522528
-0.518569
-0.514261
-0.509638
-0.50473
-0.499573
-0.494197
-0.488636
-0.482924
-0.477092
-0.471173
-0.465197
-0.459186
-0.453219
-0.44703
-0.0681297
-0.0830548
-0.0980832
-0.113359
-0.1288
-0.144318
-0.159874
-0.175452
-0.191046
-0.206644
-0.222227
-0.237769
-0.253249
-0.268642
-0.283928
-0.299083
-0.314083
-0.328904
-0.34352
-0.357906
-0.372037
-0.385886
-0.399428
-0.412638
-0.425489
-0.437956
-0.450014
-0.461638
-0.472803
-0.483485
-0.493662
-0.503311
-0.512411
-0.520942
-0.528886
-0.536226
-0.542947
-0.549035
-0.55448
-0.559275
-0.563415
-0.566899
-0.569734
-0.571929
-0.57349
-0.574429
-0.574761
-0.574501
-0.57367
-0.57229
-0.570388
-0.567992
-0.565133
-0.561844
-0.558158
-0.554112
-0.549739
-0.54508
-0.540167
-0.535042
-0.52974
-0.524301
-0.518763
-0.513169
-0.507551
-0.501966
-0.496422
-0.491027
-0.485409
-0.0800339
-0.0958775
-0.111825
-0.128035
-0.144416
-0.160879
-0.177378
-0.193898
-0.210432
-0.226968
-0.243483
-0.259953
-0.276353
-0.292658
-0.308846
-0.324892
-0.34077
-0.356454
-0.371918
-0.387133
-0.402074
-0.416713
-0.431022
-0.444973
-0.45854
-0.471694
-0.48441
-0.496659
-0.508416
-0.519656
-0.530353
-0.540485
-0.550028
-0.558962
-0.567267
-0.574926
-0.581923
-0.588244
-0.593878
-0.598819
-0.603063
-0.60661
-0.60947
-0.61165
-0.613163
-0.614022
-0.614244
-0.613851
-0.612867
-0.611318
-0.609237
-0.606657
-0.603615
-0.600149
-0.5963
-0.59211
-0.58762
-0.582873
-0.577912
-0.57278
-0.567518
-0.562173
-0.556788
-0.551416
-0.546098
-0.540912
-0.535884
-0.531147
-0.526421
-0.0938507
-0.110679
-0.127611
-0.144817
-0.162201
-0.17967
-0.197174
-0.214699
-0.232237
-0.249772
-0.267282
-0.284742
-0.302124
-0.319403
-0.336554
-0.353551
-0.370366
-0.386972
-0.40334
-0.419442
-0.435247
-0.450728
-0.465854
-0.480596
-0.494925
-0.508811
-0.522224
-0.535137
-0.547521
-0.559349
-0.570594
-0.581231
-0.591235
-0.600586
-0.609261
-0.617243
-0.624514
-0.631061
-0.636873
-0.641944
-0.64627
-0.649853
-0.652703
-0.654832
-0.656252
-0.656981
-0.657039
-0.656451
-0.655245
-0.653455
-0.651117
-0.648271
-0.644961
-0.641233
-0.637136
-0.632719
-0.628033
-0.623128
-0.618052
-0.612854
-0.607582
-0.602287
-0.597022
-0.591839
-0.586792
-0.581969
-0.577426
-0.573306
-0.569505
-0.109936
-0.127821
-0.145806
-0.164078
-0.182536
-0.201079
-0.219659
-0.238258
-0.256867
-0.275471
-0.294047
-0.312565
-0.330998
-0.349318
-0.3675
-0.385514
-0.403332
-0.420924
-0.43826
-0.455307
-0.472037
-0.488416
-0.504413
-0.519997
-0.535135
-0.549797
-0.56395
-0.577565
-0.59061
-0.603057
-0.614877
-0.626042
-0.636528
-0.646309
-0.655365
-0.663675
-0.671221
-0.677989
-0.683968
-0.689149
-0.69353
-0.697115
-0.699914
-0.701939
-0.703205
-0.703733
-0.703547
-0.702675
-0.701152
-0.699016
-0.696311
-0.693086
-0.689393
-0.685286
-0.680824
-0.676068
-0.671078
-0.665913
-0.660627
-0.655282
-0.64993
-0.64463
-0.639432
-0.634386
-0.629557
-0.62503
-0.620854
-0.617174
-0.613931
-0.128908
-0.147925
-0.167038
-0.18645
-0.206055
-0.225747
-0.245476
-0.265224
-0.28498
-0.304728
-0.324441
-0.34409
-0.363645
-0.383078
-0.402359
-0.421459
-0.440346
-0.458988
-0.477354
-0.495409
-0.513122
-0.530457
-0.547381
-0.56386
-0.57986
-0.595345
-0.610284
-0.624642
-0.638387
-0.651486
-0.66391
-0.675629
-0.686614
-0.696841
-0.706283
-0.71492
-0.722731
-0.729701
-0.735817
-0.74107
-0.745457
-0.748982
-0.751655
-0.753492
-0.754508
-0.754728
-0.75418
-0.752899
-0.750925
-0.748307
-0.745096
-0.741348
-0.737127
-0.732496
-0.727526
-0.722288
-0.716852
-0.71129
-0.705673
-0.700075
-0.694549
-0.689156
-0.683936
-0.678953
-0.674259
-0.669917
-0.665909
-0.662507
-0.659387
-0.151434
-0.171661
-0.191971
-0.212588
-0.233404
-0.25431
-0.275253
-0.296213
-0.317179
-0.338131
-0.359044
-0.379884
-0.400622
-0.421226
-0.441666
-0.461909
-0.481924
-0.501674
-0.521127
-0.540245
-0.558994
-0.577337
-0.595237
-0.612658
-0.629563
-0.645915
-0.661677
-0.676814
-0.691289
-0.705069
-0.71812
-0.730409
-0.741906
-0.752583
-0.762412
-0.771368
-0.779429
-0.786578
-0.7928
-0.798082
-0.802422
-0.805822
-0.808293
-0.80985
-0.810512
-0.810304
-0.809262
-0.807427
-0.804848
-0.801582
-0.797695
-0.793257
-0.78834
-0.783021
-0.777379
-0.771496
-0.765455
-0.759346
-0.753251
-0.74725
-0.741403
-0.735778
-0.730431
-0.725414
-0.72072
-0.716385
-0.712351
-0.709021
-0.7056
-0.178071
-0.199578
-0.221156
-0.243044
-0.265136
-0.287325
-0.309554
-0.331801
-0.354052
-0.376287
-0.398477
-0.420587
-0.442587
-0.464442
-0.486121
-0.507588
-0.528809
-0.549746
-0.570363
-0.590621
-0.610482
-0.629906
-0.648855
-0.66729
-0.685169
-0.702453
-0.719102
-0.735076
-0.750336
-0.764843
-0.778559
-0.791449
-0.803478
-0.814612
-0.824821
-0.834076
-0.842352
-0.849629
-0.855888
-0.861116
-0.865307
-0.868461
-0.87059
-0.871709
-0.87184
-0.871016
-0.869276
-0.866671
-0.86326
-0.859113
-0.854308
-0.848934
-0.843084
-0.836856
-0.830343
-0.823639
-0.816834
-0.810018
-0.803274
-0.796688
-0.790365
-0.784397
-0.778832
-0.773682
-0.768936
-0.764617
-0.760611
-0.757296
-0.753467
-0.207273
-0.230124
-0.253019
-0.276238
-0.299679
-0.323228
-0.346825
-0.370444
-0.394069
-0.417679
-0.441241
-0.464719
-0.488078
-0.511284
-0.534299
-0.557088
-0.579611
-0.601829
-0.623703
-0.645191
-0.666251
-0.686842
-0.706921
-0.726445
-0.745372
-0.763656
-0.781253
-0.798121
-0.814217
-0.829499
-0.843927
-0.857462
-0.870066
-0.881702
-0.892333
-0.901927
-0.910452
-0.917886
-0.924206
-0.929395
-0.933442
-0.936349
-0.938123
-0.938778
-0.938335
-0.936825
-0.934291
-0.930785
-0.926372
-0.92113
-0.915147
-0.908535
-0.901422
-0.893946
-0.886245
-0.878441
-0.870641
-0.862934
-0.855418
-0.848198
-0.841385
-0.835068
-0.829324
-0.824207
-0.819674
-0.815658
-0.811981
-0.808841
-0.805142
-0.240939
-0.265225
-0.289595
-0.314294
-0.339229
-0.364292
-0.389414
-0.414565
-0.439726
-0.464874
-0.489977
-0.514999
-0.539903
-0.564647
-0.589193
-0.6135
-0.637528
-0.661232
-0.684568
-0.707492
-0.729957
-0.751919
-0.773332
-0.794149
-0.814323
-0.833803
-0.852539
-0.870479
-0.887574
-0.903776
-0.91904
-0.93332
-0.946574
-0.95876
-0.969837
-0.979766
-0.988508
-0.996025
-1.00228
-1.00726
-1.01093
-1.01331
-1.01439
-1.01419
-1.01275
-1.01009
-1.00628
-1.00139
-0.9955
-0.988699
-0.981094
-0.9728
-0.963957
-0.954733
-0.94533
-0.935976
-0.926876
-0.918168
-0.909929
-0.902188
-0.895016
-0.888558
-0.88292
-0.878088
-0.873965
-0.870446
-0.867359
-0.864649
-0.861735
-0.272806
-0.29867
-0.324492
-0.350664
-0.377099
-0.40367
-0.430305
-0.456969
-0.483643
-0.510304
-0.536915
-0.563435
-0.589823
-0.616041
-0.642048
-0.667802
-0.693257
-0.71837
-0.743095
-0.767383
-0.791188
-0.81446
-0.837149
-0.859204
-0.880574
-0.901206
-0.921051
-0.94006
-0.958181
-0.975361
-0.991543
-1.00667
-1.02069
-1.03355
-1.04522
-1.05565
-1.06481
-1.07263
-1.07909
-1.08414
-1.08778
-1.08999
-1.09078
-1.09016
-1.08815
-1.08478
-1.08013
-1.07426
-1.06727
-1.05927
-1.05038
-1.04074
-1.03047
-1.01969
-1.00864
-0.997635
-0.987028
-0.977029
-0.967726
-0.95917
-0.951439
-0.944647
-0.938889
-0.934174
-0.930438
-0.92749
-0.924964
-0.922343
-0.91917
-0.320655
-0.348141
-0.37594
-0.404078
-0.432483
-0.461064
-0.489744
-0.51848
-0.547245
-0.576009
-0.604732
-0.633373
-0.661885
-0.690224
-0.718345
-0.746203
-0.773752
-0.800944
-0.827728
-0.854051
-0.879862
-0.905104
-0.92972
-0.953649
-0.97683
-0.999199
-1.02069
-1.04125
-1.06081
-1.07933
-1.09675
-1.113
-1.128
-1.14168
-1.154
-1.16488
-1.17428
-1.18212
-1.18832
-1.19283
-1.19564
-1.19671
-1.19604
-1.19365
-1.18954
-1.18377
-1.17638
-1.16749
-1.15721
-1.14574
-1.1333
-1.12012
-1.10645
-1.09243
-1.07821
-1.06407
-1.05045
-1.03778
-1.0263
-1.01613
-1.00735
-1.00002
-0.994158
-0.989566
-0.985937
-0.982825
-0.979574
-0.975473
-0.970168
-0.339911
-0.369052
-0.397915
-0.427313
-0.457082
-0.486993
-0.516955
-0.546946
-0.576958
-0.606966
-0.636936
-0.666819
-0.696564
-0.726129
-0.755464
-0.784521
-0.81325
-0.841602
-0.869526
-0.896967
-0.92387
-0.95018
-0.97584
-1.00079
-1.02499
-1.04835
-1.07083
-1.09235
-1.11282
-1.1322
-1.15044
-1.16749
-1.1833
-1.19783
-1.21101
-1.22284
-1.23328
-1.24226
-1.24962
-1.25525
-1.25907
-1.26108
-1.26127
-1.25965
-1.25621
-1.25098
-1.244
-1.23532
-1.22502
-1.21322
-1.20011
-1.18595
-1.1711
-1.15589
-1.14058
-1.1255
-1.11107
-1.0977
-1.08566
-1.075
-1.06562
-1.0573
-1.04976
-1.04271
-1.03583
-1.02893
-1.02173
-1.01398
-1.00482
-0.430318
-0.462077
-0.494623
-0.52762
-0.560887
-0.594335
-0.627873
-0.661432
-0.694989
-0.728541
-0.762064
-0.795512
-0.828828
-0.861951
-0.89483
-0.927414
-0.959649
-0.991479
-1.02284
-1.05368
-1.08392
-1.11351
-1.14236
-1.17041
-1.19758
-1.22379
-1.24898
-1.27307
-1.29601
-1.31768
-1.33796
-1.35675
-1.37398
-1.38956
-1.40338
-1.41531
-1.42519
-1.43298
-1.43872
-1.44246
-1.44415
-1.44371
-1.44104
-1.43606
-1.42869
-1.41889
-1.40663
-1.39194
-1.37492
-1.35571
-1.33453
-1.31167
-1.2875
-1.26246
-1.23703
-1.21178
-1.18725
-1.16395
-1.14231
-1.1226
-1.10499
-1.08946
-1.07582
-1.06381
-1.05304
-1.04317
-1.03387
-1.02501
-1.01747
0.0593348
0.0623436
0.0656603
0.0692562
0.0731109
0.0772625
0.0817722
0.0865552
0.0916096
0.0969001
0.102499
0.108424
0.114484
0.121093
0.127341
0.133909
0.140189
0.146799
0.153189
0.159431
0.165837
0.171356
0.176639
0.181142
0.185143
0.18867
0.191183
0.192829
0.193831
0.193962
0.192776
0.190755
0.18794
0.18445
0.179718
0.174288
0.168335
0.161671
0.154375
0.146856
0.138934
0.130745
0.122578
0.114491
0.106003
0.0979587
0.0897421
0.0818919
0.0741014
0.0665576
0.0593651
0.0524361
0.0458672
0.0396254
0.0336909
0.0277965
0.0222915
0.0170116
0.0119985
0.0595152
0.0627012
0.0662092
0.0699888
0.0740676
0.078451
0.0831569
0.088168
0.0934878
0.0991111
0.105012
0.111196
0.11762
0.124273
0.13111
0.13792
0.144859
0.151729
0.158577
0.16514
0.17156
0.177627
0.183144
0.188035
0.192291
0.195917
0.198715
0.200499
0.20156
0.201651
0.200507
0.198534
0.195639
0.191775
0.18693
0.181255
0.174944
0.168016
0.160454
0.152469
0.144233
0.135733
0.127108
0.118339
0.109603
0.100978
0.0924492
0.0841541
0.0760358
0.0681578
0.0605979
0.0533462
0.0463687
0.0397217
0.0333223
0.0272394
0.0214606
0.0159854
0.0107863
0.0599263
0.0632887
0.0669556
0.0709251
0.075212
0.0798233
0.0847602
0.0900239
0.095619
0.101537
0.107752
0.114236
0.120978
0.12795
0.135102
0.142394
0.149757
0.157074
0.164274
0.17124
0.177933
0.184317
0.190184
0.195424
0.199987
0.203794
0.206749
0.208737
0.209856
0.209935
0.208889
0.206885
0.203804
0.199703
0.194637
0.188722
0.182057
0.174767
0.166882
0.158544
0.149863
0.140881
0.131727
0.12251
0.11332
0.104235
0.0952741
0.0865127
0.0779784
0.069697
0.0617173
0.0540396
0.0466688
0.0396075
0.0328863
0.0264995
0.0204238
0.0146628
0.00918515
0.060232
0.0637627
0.0676194
0.0717936
0.0763034
0.081156
0.0863547
0.0918995
0.0977885
0.104015
0.110564
0.11741
0.124532
0.131892
0.13943
0.147124
0.154871
0.162603
0.17021
0.177615
0.184727
0.191446
0.197653
0.203224
0.208087
0.212131
0.21527
0.217427
0.218626
0.218725
0.21771
0.215627
0.212387
0.208096
0.202789
0.196592
0.189582
0.181883
0.173579
0.164796
0.155619
0.146146
0.13651
0.126829
0.11715
0.107564
0.0981175
0.08887
0.0798672
0.071135
0.062706
0.0545998
0.046832
0.0394053
0.0323272
0.0255915
0.0191869
0.0131143
0.00734772
0.060255
0.0639682
0.0680285
0.0724258
0.0771785
0.0822929
0.0877747
0.0936246
0.0998391
0.10641
0.113324
0.120558
0.128085
0.135862
0.143836
0.151953
0.160133
0.168302
0.176359
0.184214
0.191762
0.198877
0.20545
0.211365
0.21653
0.220839
0.224195
0.226513
0.227801
0.227936
0.226911
0.224737
0.221351
0.216861
0.2113
0.20479
0.197418
0.189298
0.180538
0.171263
0.161582
0.151613
0.141475
0.131271
0.12107
0.110957
0.100997
0.0912474
0.0817537
0.0725495
0.0636651
0.0551235
0.0469388
0.0391166
0.0316572
0.0245589
0.0178135
0.0114187
0.00534563
0.0600229
0.0639301
0.0682045
0.0728359
0.0778444
0.0832364
0.0890184
0.0951918
0.101754
0.108695
0.116
0.123646
0.131602
0.139826
0.148265
0.156854
0.165516
0.174167
0.182707
0.191032
0.199031
0.20658
0.213558
0.219846
0.225339
0.229932
0.233521
0.236012
0.237401
0.237579
0.236539
0.234273
0.230733
0.226022
0.220185
0.21334
0.205581
0.197029
0.1878
0.178024
0.167827
0.157328
0.146644
0.135879
0.125122
0.114456
0.103954
0.0936737
0.083663
0.0739608
0.0645975
0.055595
0.0469668
0.0387198
0.0308555
0.023372
0.0162607
0.0095183
0.00311514
0.059524
0.0636387
0.068142
0.0730238
0.0783052
0.0839934
0.0900951
0.0966127
0.103544
0.110878
0.118601
0.126688
0.135104
0.143807
0.15274
0.161837
0.171016
0.180187
0.189243
0.198073
0.206559
0.214575
0.221993
0.228686
0.234537
0.239436
0.243275
0.245955
0.247458
0.247689
0.246637
0.244278
0.240574
0.235626
0.229494
0.222292
0.214125
0.205118
0.195397
0.1851
0.174354
0.163288
0.152019
0.140662
0.129313
0.118061
0.10698
0.096133
0.0855712
0.075336
0.0654587
0.0559614
0.0468585
0.0381576
0.0298604
0.0219646
0.0144612
0.00734734
0.000592416
0.0587035
0.0630427
0.0677937
0.072946
0.0785218
0.0845288
0.0909746
0.0978617
0.105188
0.112944
0.121114
0.129673
0.138583
0.1478
0.157263
0.166903
0.176635
0.186361
0.195971
0.205345
0.214358
0.222877
0.230769
0.237898
0.244137
0.249367
0.253475
0.25636
0.257991
0.258282
0.257221
0.254768
0.250895
0.245699
0.239253
0.231673
0.223072
0.213581
0.203336
0.19248
0.181148
0.169473
0.157583
0.145596
0.133618
0.12174
0.110042
0.0985901
0.0874402
0.0766353
0.0662082
0.0561823
0.0465728
0.037388
0.0286297
0.0202955
0.0123761
0.00486796
-0.00226087
0.0575044
0.0620841
0.0671008
0.0725436
0.0784357
0.0847858
0.0916022
0.0988878
0.10664
0.114851
0.123502
0.132567
0.142009
0.151778
0.161813
0.172037
0.182363
0.192686
0.20289
0.212849
0.22243
0.231493
0.239895
0.247492
0.254148
0.259735
0.264132
0.26724
0.269011
0.269371
0.2683
0.265751
0.261701
0.256245
0.249468
0.241487
0.232424
0.222417
0.211611
0.200155
0.188195
0.175872
0.163319
0.150662
0.138012
0.125468
0.113112
0.101017
0.0892408
0.0778282
0.0668147
0.0562255
0.0460768
0.0363774
0.0271292
0.0183291
0.00996715
0.00203921
-0.00548829
0.0558653
0.0607022
0.0660029
0.0717564
0.0779878
0.0847064
0.0919213
0.0996356
0.107847
0.116547
0.125716
0.135327
0.145341
0.155706
0.166357
0.177212
0.188178
0.199145
0.20999
0.22058
0.230774
0.240423
0.249374
0.257475
0.26458
0.27055
0.27526
0.278606
0.280533
0.280969
0.279888
0.27724
0.273003
0.267272
0.260141
0.251734
0.242178
0.231621
0.220217
0.208122
0.195492
0.182476
0.169217
0.155845
0.14248
0.129225
0.11617
0.103389
0.090944
0.0788837
0.0672453
0.0560553
0.0453311
0.0350821
0.0253101
0.016012
0.00717709
-0.00119966
-0.00915313
0.0537092
0.0588232
0.0644292
0.0705165
0.077112
0.0842262
0.0918688
0.100044
0.108749
0.117976
0.127704
0.137905
0.148537
0.159546
0.170861
0.182397
0.194054
0.205716
0.217253
0.228524
0.23938
0.249661
0.259204
0.267849
0.275436
0.28182
0.286868
0.290473
0.292569
0.293088
0.292
0.289247
0.284812
0.278788
0.27128
0.262417
0.252336
0.241192
0.229149
0.216372
0.203028
0.189274
0.175261
0.161127
0.146998
0.132985
0.119181
0.105668
0.0925094
0.0797577
0.067452
0.0556204
0.0442814
0.0334447
0.0231126
0.0132814
0.00393967
-0.00491768
-0.0133265
0.0509455
0.0563567
0.0622912
0.0687385
0.0757267
0.0832676
0.091372
0.100045
0.109284
0.119079
0.129412
0.140249
0.151549
0.163251
0.175282
0.187552
0.199954
0.212366
0.224651
0.23666
0.248231
0.259195
0.269378
0.278608
0.286717
0.293548
0.298962
0.302847
0.305127
0.305738
0.304644
0.301781
0.297136
0.2908
0.28289
0.27354
0.262897
0.251126
0.2384
0.224895
0.210787
0.196245
0.181426
0.166478
0.151533
0.136708
0.122105
0.107808
0.0938865
0.0803953
0.0673762
0.0548588
0.0428628
0.0313983
0.0204671
0.0100659
0.000183052
-0.00918759
-0.0180835
0.047475
0.0532059
0.0594945
0.0663306
0.0737434
0.0817457
0.0903497
0.0995603
0.109376
0.119786
0.130769
0.142294
0.154312
0.166762
0.179566
0.192629
0.205838
0.219063
0.232158
0.244963
0.257306
0.269006
0.27988
0.289742
0.298413
0.305728
0.311539
0.315727
0.318209
0.318922
0.317823
0.314846
0.309976
0.303307
0.294967
0.285097
0.273853
0.26141
0.247953
0.23367
0.218745
0.203357
0.187676
0.171856
0.156038
0.140346
0.124887
0.109752
0.0950139
0.0807316
0.0669487
0.0536971
0.0409974
0.0288601
0.0172877
0.00627637
-0.00418624
-0.0141072
-0.0235254
0.0431844
0.0492599
0.0559297
0.0631843
0.0710549
0.0795549
0.0886973
0.0984881
0.108926
0.119999
0.131686
0.143952
0.156749
0.170009
0.183652
0.197574
0.211657
0.225761
0.239731
0.253396
0.266572
0.279069
0.290689
0.301233
0.310512
0.318349
0.32459
0.329106
0.331809
0.332634
0.331532
0.328435
0.323326
0.316303
0.307501
0.297073
0.285186
0.272024
0.257784
0.242664
0.226863
0.21057
0.193963
0.17721
0.160457
0.143836
0.127461
0.111429
0.0958159
0.0806862
0.0660865
0.0520494
0.0385964
0.0257389
0.0134797
0.00181466
-0.00926992
-0.0197819
-0.0297611
0.03793
0.0443749
0.0514546
0.0591599
0.0675237
0.0765609
0.0862852
0.0967035
0.107815
0.119607
0.132058
0.14513
0.158771
0.172911
0.187462
0.202316
0.217344
0.232399
0.247315
0.26191
0.275989
0.289346
0.30177
0.31305
0.322986
0.331388
0.338094
0.342968
0.345911
0.346859
0.345758
0.342533
0.33717
0.329766
0.32047
0.309444
0.296865
0.282931
0.26785
0.251834
0.235092
0.217826
0.200226
0.18247
0.164715
0.147099
0.129743
0.112749
0.0961994
0.0801615
0.0646846
0.0498041
0.0355435
0.0219142
0.00891869
-0.00344784
-0.0151993
-0.0263444
-0.0369256
0.0315407
0.0383827
0.0459032
0.054095
0.062992
0.0726108
0.0829664
0.0940662
0.105909
0.118483
0.131763
0.14571
0.160268
0.175362
0.190897
0.206759
0.222812
0.238896
0.254836
0.270438
0.285493
0.29978
0.313074
0.325151
0.335797
0.344812
0.352022
0.357282
0.360488
0.36157
0.360471
0.357113
0.351477
0.343665
0.333838
0.32217
0.308848
0.294084
0.2781
0.261119
0.243367
0.225055
0.206388
0.187554
0.16872
0.150037
0.131628
0.113602
0.0960482
0.0790367
0.0626201
0.0468358
0.0317078
0.0172488
0.00346169
-0.00965889
-0.0221284
-0.0339575
-0.045189
0.0238017
0.0310716
0.0390689
0.0477884
0.0572649
0.0675165
0.0785591
0.0904007
0.10304
0.116463
0.130645
0.145542
0.161096
0.177225
0.193829
0.210785
0.227948
0.24515
0.262202
0.278895
0.295005
0.310298
0.324533
0.337472
0.348885
0.358563
0.366318
0.371998
0.37549
0.376721
0.375627
0.372125
0.366197
0.357948
0.347549
0.335188
0.321068
0.30541
0.288454
0.270435
0.251597
0.232161
0.212346
0.192352
0.172359
0.152526
0.132986
0.113852
0.0952196
0.077164
0.0597394
0.0429851
0.0269259
0.0115755
-0.00306315
-0.016996
-0.030239
-0.0428039
-0.0547341
0.0144931
0.0222254
0.0307379
0.0400287