/*--------------------------------*- C++ -*----------------------------------*\
| =========                 |                                                 |
| \\      /  F ield         | OpenFOAM: The Open Source CFD Toolbox           |
|  \\    /   O peration     | Version:  2312                                  |
|   \\  /    A nd           | Website:  www.openfoam.com                      |
|    \\/     M anipulation  |                                                 |
\*---------------------------------------------------------------------------*/
FoamFile
{
    version     2.0;
    format      ascii;
    arch        "LSB;label=32;scalar=64";
    class       surfaceScalarField;
    location    "1000";
    object      phi;
}
// * * * * * * * * * * * * * * * * * * * * * * * * * * * * * * * * * * * * * //

dimensions      [0 3 -1 0 0 0 0];

oriented        oriented;

internalField   nonuniform List<scalar> 
116611
(
0.0290557
0.0115687
-0.0286495
-0.0119749
0.0294595
0.0114944
-0.0118983
0.0298569
0.0114119
-0.0118093
0.0302493
0.011321
-0.0117135
0.0306405
0.0112239
-0.0116151
0.0310304
0.0111181
-0.011508
0.0314128
0.0110054
-0.0113878
0.0317956
0.0108852
-0.0112681
0.0321654
0.0107549
-0.0111246
0.0325311
0.0106154
-0.0109811
0.0328903
0.0104661
-0.0108252
0.0332445
0.0103078
-0.010662
0.0335892
0.0101396
-0.0104843
0.0339233
0.00996039
-0.0102945
0.0342459
0.00977012
-0.0100928
0.0345595
0.00956996
-0.00988358
0.0348658
0.00935677
-0.00966308
0.0351647
0.00913615
-0.00943504
0.0354509
0.00889977
-0.00918597
0.035726
0.00865513
-0.00893023
0.0359909
0.0083954
-0.00866026
0.0362388
0.0081242
-0.00837213
0.0364719
0.00783886
-0.00807197
0.0366931
0.00754263
-0.00776376
0.0369003
0.00723319
-0.00744047
0.037099
0.00691136
-0.00711006
0.0372804
0.00657362
-0.00675498
0.0374456
0.00622448
-0.00638967
0.0376055
0.00586371
-0.00602364
0.0377429
0.00548948
-0.00562686
0.0378658
0.0051024
-0.00522533
0.0379775
0.00469795
-0.00480962
0.0380673
0.00427917
-0.004369
0.0381443
0.00385023
-0.00392723
0.0382037
0.00340509
-0.00346443
0.0382429
0.00294844
-0.00298766
0.038276
0.00247907
-0.00251217
0.0382797
0.00199363
-0.00199737
0.0382701
0.00149543
-0.00148585
0.0382366
0.000980417
-0.000946927
0.0381854
0.000456205
-0.000404965
0.0381248
-8.0802e-05
0.000141372
0.0380318
-0.0006364
0.000729452
0.0379242
-0.00120162
0.00130916
0.0377901
-0.00178077
0.00191493
0.0376446
-0.00236843
0.00251391
0.0374725
-0.00297138
0.00314349
0.0372735
-0.00358444
0.0037834
0.037059
-0.00420287
0.00441738
0.036825
-0.00483046
0.00506453
0.0365655
-0.00546811
0.0057276
0.0362861
-0.00611112
0.00639052
0.0359851
-0.00676093
0.00706195
0.0356577
-0.00741765
0.00774503
0.0352935
-0.00807849
0.0084427
0.0349251
-0.00873098
0.00909931
0.0345144
-0.0093903
0.00980097
0.0340887
-0.0100415
0.0104672
0.0336397
-0.0106858
0.0111348
0.0331695
-0.0113207
0.011791
0.0326649
-0.0119546
0.0124592
0.0321405
-0.012573
0.0130974
0.0315972
-0.0131676
0.0137109
0.0310245
-0.0137469
0.0143196
0.0304205
-0.0143047
0.0149087
0.0298208
-0.0148219
0.0154216
0.0292028
-0.0153119
0.0159298
0.0285498
-0.0157807
0.0164338
-0.0161858
0.0278304
0.0169052
0.0287078
0.0111608
-0.0282999
0.0291113
0.0110909
0.0295099
0.0110133
0.029903
0.0109279
0.0302928
0.0108341
0.0306777
0.0107332
0.0310587
0.0106244
0.0314362
0.0105077
0.031808
0.0103831
0.0321739
0.0102495
0.0325332
0.0101068
0.032886
0.00995491
0.0332323
0.00979339
0.0335705
0.00962219
0.0338989
0.00944167
0.0342188
0.00925008
0.0345276
0.00904801
0.0348289
0.00883477
0.0351182
0.00861052
0.0353989
0.00837445
0.0356675
0.00812672
0.0359244
0.00786732
0.0361675
0.00759574
0.036398
0.00731219
0.0366151
0.00701607
0.0368198
0.00670665
0.0370086
0.0063848
0.037183
0.0060501
0.0373443
0.00570242
0.0374907
0.00534307
0.0376236
0.00496957
0.0377401
0.00458142
0.0378388
0.00418048
0.0379224
0.00376658
0.0379881
0.00333938
0.0380377
0.00289887
0.0380715
0.00244524
0.0380867
0.00197845
0.0380845
0.00149768
0.0380615
0.00100339
0.0380209
0.000496808
0.0379619
-2.18114e-05
0.0378803
-0.000554785
0.0377792
-0.00110056
0.0376566
-0.00165815
0.0375149
-0.00222667
0.0373498
-0.00280636
0.0371619
-0.00339648
0.0369539
-0.00399486
0.0367244
-0.00460097
0.0364715
-0.00521522
0.0361966
-0.00583624
0.0358987
-0.00646307
0.0355757
-0.00709463
0.0352264
-0.00772918
0.0348575
-0.00836206
0.0344615
-0.00899431
0.0340431
-0.00962304
0.0336024
-0.0102451
0.0331414
-0.0108598
0.0326539
-0.0114671
0.0321426
-0.0120617
0.0316128
-0.0126377
0.0310607
-0.0131948
0.0304866
-0.0137306
0.0299
-0.0142353
0.0292966
-0.0147084
0.0286709
-0.015155
-0.0155369
0.028022
0.0283722
0.0107551
-0.0279665
0.028775
0.0106882
0.0291741
0.0106142
0.029569
0.010533
0.0299587
0.0104444
0.0303437
0.0103482
0.0307237
0.0102443
0.031099
0.0101324
0.0314696
0.0100125
0.0318346
0.00988446
0.0321936
0.00974789
0.032546
0.00960249
0.0328914
0.00944797
0.0332295
0.00928412
0.0335602
0.00911091
0.0338824
0.00892789
0.0341956
0.0087348
0.0344993
0.00853116
0.034793
0.00831678
0.0350762
0.00809127
0.0353483
0.00785455
0.0356093
0.0076064
0.0358583
0.00734667
0.0360953
0.00707523
0.0363195
0.00679186
0.0365299
0.00649623
0.0367265
0.00618822
0.0369089
0.00586775
0.0370766
0.00553472
0.0372305
0.00518913
0.0373695
0.00483053
0.0374922
0.00445876
0.0375987
0.00407399
0.037689
0.0036763
0.0377625
0.00326581
0.0378191
0.00284229
0.0378585
0.0024059
0.0378804
0.00195652
0.037884
0.00149404
0.0378686
0.00101879
0.0378343
0.000531138
0.0377808
3.16835e-05
0.0377073
-0.000481301
0.0376135
-0.00100673
0.0374989
-0.00154357
0.0373635
-0.00209124
0.0372064
-0.00264932
0.0370273
-0.00321729
0.0368265
-0.00379408
0.0366041
-0.00437857
0.0363594
-0.00497058
0.0360925
-0.0055693
0.0358028
-0.00617341
0.0354898
-0.0067816
0.0351528
-0.00739213
0.0347933
-0.00800258
0.0344105
-0.00861158
0.0340052
-0.00921771
0.0335783
-0.00981826
0.0331302
-0.0104117
0.0326595
-0.0109964
0.0321669
-0.0115691
0.0316548
-0.0121256
0.0311232
-0.0126631
0.0305719
-0.0131794
0.0300048
-0.0136682
0.0294222
-0.0141257
0.0288219
-0.0145548
-0.0149223
0.0282074
0.0280578
0.0103525
-0.0276552
0.0284582
0.0102879
0.0288558
0.0102165
0.0292501
0.0101388
0.0296402
0.0100543
0.0300258
0.00996271
0.0304063
0.00986378
0.0307815
0.00975718
0.0311512
0.00964273
0.0315154
0.00952027
0.0318737
0.00938962
0.0322256
0.00925055
0.0325708
0.00910281
0.0329088
0.00894614
0.0332394
0.00878031
0.0335621
0.00860518
0.0338765
0.00842041
0.0341819
0.00822576
0.0344778
0.00802088
0.0347635
0.00780551
0.0350387
0.0075794
0.0353028
0.0073423
0.0355554
0.00709405
0.0357961
0.0068345
0.0360245
0.00656348
0.03624
0.00628076
0.0364421
0.0059861
0.0366304
0.00567944
0.0368045
0.00536065
0.0369641
0.00502953
0.0371087
0.00468595
0.0372376
0.00432981
0.0373506
0.00396101
0.0374473
0.00357957
0.0375275
0.00318566
0.0375907
0.00277906
0.0376367
0.00235989
0.0376651
0.00192815
0.0376753
0.00148384
0.0376668
0.00102724
0.0376394
0.00055851
0.0375929
7.82715e-05
0.0375265
-0.000414909
0.0374398
-0.000920052
0.0373326
-0.00143635
0.0372046
-0.00196325
0.0370555
-0.00250021
0.0368849
-0.00304668
0.0366927
-0.0036019
0.036479
-0.00416489
0.0362435
-0.00473512
0.035986
-0.00531176
0.0357061
-0.00589351
0.0354036
-0.00647909
0.0350784
-0.00706692
0.0347311
-0.00765526
0.0343619
-0.00824239
0.033971
-0.00882678
0.033559
-0.00940627
0.0331263
-0.00997897
0.0326727
-0.0105428
0.0321988
-0.0110951
0.0317056
-0.0116324
0.0311941
-0.0121517
0.0306647
-0.01265
0.0301193
-0.0131228
0.0295591
-0.0135656
0.0289845
-0.0139801
-0.014337
0.0283992
0.027764
0.00995088
-0.0273624
0.0281627
0.00988916
0.0285585
0.00982076
0.0289511
0.00974611
0.0293403
0.00966514
0.0297254
0.0095776
0.0301059
0.00948321
0.0304814
0.00938168
0.0308514
0.00927271
0.0312157
0.00915603
0.0315739
0.00903144
0.0319257
0.00889874
0.0322708
0.00875772
0.0326088
0.00860814
0.0329393
0.00844978
0.0332621
0.00828242
0.0335766
0.00810584
0.0338826
0.00791979
0.0341794
0.00772404
0.0344667
0.00751829
0.0347437
0.00730234
0.0350101
0.00707594
0.0352652
0.00683887
0.0355088
0.00659096
0.0357403
0.00633201
0.0359592
0.0060618
0.0361652
0.00578015
0.0363577
0.00548692
0.0365363
0.00518199
0.0367007
0.00486519
0.0368503
0.00453638
0.0369846
0.0041955
0.0371031
0.00384243
0.0372056
0.00347708
0.0372917
0.00309962
0.0373609
0.0027098
0.037413
0.00230779
0.0374476
0.00189363
0.0374641
0.00146732
0.0374622
0.00102915
0.0374415
0.00057921
0.0374016
0.000118133
0.037342
-0.000355332
0.0372624
-0.000840478
0.0371627
-0.00133658
0.0370426
-0.00184314
0.0369019
-0.00235954
0.0367404
-0.00288517
0.0365578
-0.00341928
0.0363539
-0.00396107
0.0361286
-0.00450984
0.0358817
-0.00506477
0.0356129
-0.00562472
0.0353222
-0.00618846
0.0350099
-0.00675454
0.034676
-0.00732144
0.0343211
-0.00788746
0.0339453
-0.00845098
0.0335491
-0.00901009
0.0331329
-0.00956276
0.032697
-0.0101069
0.0322418
-0.0106399
0.0317681
-0.0111588
0.031277
-0.0116606
0.030769
-0.0121419
0.0302456
-0.0125994
0.0297082
-0.0130282
0.0291586
-0.0134305
-0.01378
0.0286016
0.0274856
0.0095478
-0.0270825
0.0278849
0.00948982
0.0282805
0.00942512
0.0286725
0.00935414
0.0290608
0.00927691
0.029445
0.00919335
0.029825
0.00910325
0.0302002
0.00900643
0.0305703
0.00890261
0.0309348
0.00879153
0.0312933
0.00867294
0.0316454
0.00854661
0.0319909
0.0084123
0.0323292
0.00826978
0.0326601
0.00811887
0.0329832
0.00795931
0.0332982
0.0077909
0.0336046
0.0076134
0.033902
0.00742662
0.03419
0.00723029
0.0344681
0.00702421
0.0347359
0.00680818
0.0349928
0.00658195
0.0352384
0.00634535
0.0354723
0.00609815
0.0356939
0.00584016
0.0359029
0.00557118
0.0360987
0.00529108
0.036281
0.00499973
0.0364492
0.00469697
0.036603
0.00438264
0.0367418
0.00405669
0.0368651
0.00371906
0.0369726
0.00336958
0.0370639
0.00300837
0.0371384
0.00263525
0.0371959
0.00225031
0.0372359
0.00185362
0.0372581
0.00144514
0.0372622
0.00102512
0.0372478
0.000593627
0.0372147
0.00015123
0.0371624
-0.000303072
0.0370907
-0.00076877
0.0369992
-0.00124511
0.0368876
-0.00173157
0.0367557
-0.00222763
0.0366033
-0.00273272
0.0364302
-0.00324614
0.0362363
-0.00376718
0.0360215
-0.00429505
0.0357856
-0.00482894
0.0355287
-0.00536778
0.0352507
-0.00591043
0.0349517
-0.00645554
0.0346319
-0.0070017
0.0342918
-0.0075473
0.0339315
-0.00809072
0.0335515
-0.00863013
0.0331523
-0.00916349
0.0327341
-0.0096888
0.0322976
-0.0102034
0.0318435
-0.0107047
0.0313726
-0.0111897
0.0308857
-0.011655
0.0303843
-0.012098
0.0298694
-0.0125133
0.0293425
-0.0129035
-0.0132441
0.0288066
0.0272189
0.00914232
-0.0268135
0.0276204
0.00908833
0.0280178
0.00902776
0.0284109
0.00896103
0.0287997
0.00888812
0.0291841
0.00880895
0.0295639
0.00872341
0.029939
0.00863136
0.030309
0.00853262
0.0306735
0.00842698
0.0310323
0.0083142
0.0313848
0.00819408
0.0317307
0.00806637
0.0320697
0.00793083
0.0324013
0.0077873
0.0327251
0.00763549
0.0330408
0.0074752
0.0333479
0.00730623
0.0336462
0.00712837
0.0339351
0.00694138
0.0342143
0.00674505
0.0344833
0.00653918
0.0347416
0.00632358
0.0349889
0.00609803
0.0352247
0.00586237
0.0354485
0.00561639
0.0356598
0.00535987
0.0358582
0.00509268
0.0360432
0.00481469
0.0362145
0.0045257
0.0363716
0.00422559
0.0365139
0.0039143
0.0366412
0.00359178
0.036753
0.00325785
0.0368488
0.00291251
0.0369283
0.00255573
0.0369912
0.00218745
0.0370371
0.00180776
0.0370655
0.00141668
0.0370762
0.00101441
0.0370688
0.00060101
0.0370431
0.000177009
0.0369984
-0.000258367
0.0369344
-0.000704835
0.036851
-0.00116165
0.0367477
-0.0016283
0.0366244
-0.00210434
0.0364809
-0.00258926
0.0363172
-0.00308243
0.0361332
-0.00358318
0.0359289
-0.0040907
0.0357041
-0.00460419
0.035459
-0.00512261
0.0351935
-0.00564493
0.0349077
-0.00616982
0.034602
-0.006696
0.0342766
-0.00722187
0.0339318
-0.00774594
0.033568
-0.00826633
0.0331857
-0.00878116
0.0327853
-0.00928839
0.0323673
-0.00978538
0.0319326
-0.01027
0.0314818
-0.0107389
0.0310159
-0.0111892
0.0305362
-0.0116183
0.0300434
-0.0120206
0.0295397
-0.0123998
-0.0127318
0.0290273
0.0269647
0.0087351
-0.0265575
0.0273683
0.00868478
0.0277678
0.00862821
0.0281631
0.00856579
0.0285537
0.00849745
0.0289397
0.00842302
0.0293207
0.0083424
0.0296966
0.00825545
0.0300672
0.00816202
0.0304322
0.00806193
0.0307914
0.00795498
0.0311445
0.00784101
0.031491
0.00771984
0.0318307
0.00759118
0.0321631
0.00745493
0.0324878
0.00731078
0.0328044
0.00715854
0.0331127
0.00699801
0.033412
0.00682899
0.0337022
0.00665126
0.0339826
0.00646464
0.0342529
0.00626889
0.0345126
0.0060638
0.0347615
0.0058492
0.034999
0.00562489
0.0352246
0.00539071
0.0354381
0.00514644
0.0356388
0.00489193
0.0358265
0.00462705
0.0360005
0.00435162
0.0361606
0.0040655
0.0363063
0.00376858
0.0364373
0.0034608
0.0365531
0.00314202
0.0366535
0.0028122
0.0367378
0.00247134
0.0368059
0.00211938
0.0368573
0.00175637
0.0368916
0.00138241
0.0369083
0.000997634
0.0369072
0.0006021
0.036888
0.000196282
0.03685
-0.00022044
0.0367932
-0.000647991
0.0367172
-0.00108567
0.036622
-0.00153303
0.0365072
-0.00198961
0.0363729
-0.00245494
0.0362189
-0.0029284
0.0360451
-0.00340937
0.0358514
-0.00389708
0.035638
-0.00439076
0.0354048
-0.0048894
0.0351519
-0.00539203
0.0348794
-0.00589737
0.0345877
-0.00640425
0.0342769
-0.00691107
0.0339475
-0.00741649
0.0335997
-0.00791855
0.0332341
-0.00841562
0.0328512
-0.00890546
0.0324516
-0.00938579
0.032036
-0.0098544
0.0316052
-0.010308
0.0311603
-0.0107443
0.0307022
-0.0111602
0.030232
-0.0115504
0.0297503
-0.0119181
-0.0122389
0.0292574
0.0267256
0.00832705
-0.0263176
0.0271304
0.00827999
0.0275316
0.00822705
0.0279287
0.00816864
0.0283215
0.00810469
0.0287095
0.00803498
0.0290926
0.00795938
0.0294703
0.0078777
0.0298425
0.0077898
0.030209
0.00769548
0.0305694
0.00759457
0.0309235
0.00748687
0.0312711
0.00737227
0.0316118
0.00725051
0.0319452
0.00712149
0.032271
0.00698499
0.0325888
0.00684076
0.0328981
0.00668863
0.0331987
0.0065284
0.0334902
0.00635982
0.0337721
0.00618276
0.0340439
0.00599701
0.0343054
0.00580231
0.0345561
0.0055985
0.0347956
0.00538538
0.0350235
0.00516282
0.0352394
0.00493061
0.0354427
0.00468857
0.0356332
0.00443654
0.0358105
0.00417438
0.035974
0.00390195
0.0361235
0.00361912
0.0362584
0.00332585
0.0363784
0.00302202
0.036483
0.00270759
0.0365719
0.00238253
0.0366445
0.00204677
0.0367005
0.00170033
0.0367396
0.00134328
0.0367616
0.000975725
0.0367659
0.000597712
0.0367526
0.00020967
0.036721
-0.000188924
0.0366712
-0.000598106
0.0366027
-0.00101719
0.0365154
-0.00144574
0.0364091
-0.00188336
0.0362838
-0.00232957
0.0361392
-0.00278383
0.0359754
-0.00324554
0.0357923
-0.00371398
0.0355899
-0.0041884
0.0353684
-0.00466785
0.0351278
-0.00515142
0.0348683
-0.00563787
0.0345901
-0.00612611
0.0342936
-0.00661458
0.0339792
-0.00710205
0.0336471
-0.0075865
0.0332981
-0.00806658
0.0329324
-0.00853978
0.032551
-0.00900436
0.0321543
-0.00945769
0.0317433
-0.00989699
0.0313191
-0.0103202
0.0308825
-0.0107235
0.0304357
-0.0111036
0.0299783
-0.0114607
-0.011778
0.0295175
0.0265044
0.00791862
-0.026096
0.0269099
0.00787456
0.027312
0.00782497
0.0277103
0.00777029
0.0281046
0.00771043
0.0284943
0.00764521
0.0288793
0.00757443
0.0292591
0.00749791
0.0296334
0.00741549
0.0300019
0.007327
0.0303642
0.0072322
0.0307202
0.0071309
0.0310695
0.00702299
0.0314117
0.00690827
0.0317467
0.00678654
0.032074
0.00665765
0.0323934
0.00652141
0.0327044
0.00637762
0.0330067
0.00622611
0.0332999
0.00606664
0.0335836
0.00589903
0.0338574
0.00572316
0.034121
0.00553877
0.0343738
0.00534565
0.0346156
0.00514361
0.0348459
0.00493252
0.0350643
0.0047122
0.0352705
0.00448241
0.035464
0.00424303
0.0356444
0.00399396
0.0358113
0.00373504
0.0359643
0.00346616
0.0361029
0.00318727
0.0362266
0.00289825
0.0363352
0.00259902
0.0364282
0.00228954
0.0365052
0.00196974
0.0365659
0.00163961
0.03661
0.00129918
0.0366372
0.000948543
0.0366472
0.000587726
0.0366397
0.000217108
0.0366146
-0.000163744
0.0365714
-0.000554952
0.0365101
-0.000955849
0.0364304
-0.00136604
0.0363322
-0.00178514
0.0362153
-0.00221273
0.0360798
-0.00264828
0.0359255
-0.00309126
0.0357524
-0.00354095
0.0355607
-0.0039967
0.0353504
-0.00445755
0.0351217
-0.00492269
0.0348747
-0.0053909
0.0346098
-0.00586119
0.0343272
-0.00633202
0.0340275
-0.00680225
0.0337108
-0.0072699
0.033378
-0.00773373
0.0330293
-0.00819113
0.0326658
-0.00864076
0.0322876
-0.00907958
0.0318962
-0.00950556
0.0314922
-0.00991611
0.0310765
-0.0103079
0.0306513
-0.0106785
0.0302169
-0.0110262
-0.0113431
0.0297819
0.0263029
0.00750982
-0.0258941
0.0267087
0.00746872
0.0271114
0.00742232
0.0275105
0.00737115
0.0279058
0.00731516
0.0282968
0.00725418
0.0286833
0.00718797
0.0290648
0.00711638
0.029441
0.00703924
0.0298116
0.00695643
0.0301761
0.00686768
0.0305343
0.00677275
0.0308858
0.0066715
0.0312303
0.00656375
0.0315675
0.00644934
0.031897
0.00632809
0.0322186
0.00619988
0.0325317
0.00606448
0.0328361
0.00592175
0.0331313
0.00577142
0.0334171
0.00561326
0.033693
0.0054472
0.0339588
0.00527299
0.034214
0.00509043
0.0344584
0.00489929
0.0346914
0.0046995
0.0349127
0.00449092
0.0351218
0.00427329
0.0353183
0.00404651
0.0355018
0.00381049
0.0356718
0.00356503
0.0358279
0.00331001
0.0359699
0.00304534
0.0360972
0.0027709
0.0362096
0.00248663
0.0363067
0.00219246
0.0363881
0.00188832
0.0364535
0.0015742
0.0365026
0.00125011
0.036535
0.000916102
0.0365506
0.000572187
0.036549
0.000218691
0.03653
-0.000144761
0.0364934
-0.000518347
0.036439
-0.000901434
0.0363666
-0.00129366
0.0362761
-0.00169466
0.0361674
-0.00210407
0.0360406
-0.00252138
0.0358954
-0.00294612
0.0357321
-0.00337761
0.0355506
-0.00381524
0.0353512
-0.0042581
0.0351339
-0.00470544
0.0348991
-0.00515609
0.034647
-0.00560912
0.0343781
-0.00606307
0.0340926
-0.00651681
0.0337912
-0.00696845
0.0334742
-0.00741675
0.0331423
-0.00785922
0.0327961
-0.00829458
0.0324362
-0.0087197
0.0320637
-0.00913303
0.0316789
-0.00953133
0.0312831
-0.00991205
0.030877
-0.0102723
0.0304612
-0.0106105
-0.0109239
0.0300421
0.0261216
0.00710057
-0.0257124
0.026528
0.00706238
0.0269312
0.0070191
0.027331
0.00697133
0.0277271
0.00691906
0.0281191
0.00686213
0.0285068
0.00680035
0.0288896
0.0067335
0.0292674
0.00666143
0.0296398
0.00658405
0.0300063
0.00650118
0.0303666
0.00641246
0.0307203
0.00631777
0.0310671
0.00621697
0.0314065
0.00610992
0.0317383
0.00599634
0.0320621
0.00587609
0.0323776
0.00574898
0.0326845
0.00561485
0.0329824
0.00547352
0.0332709
0.00532471
0.0335498
0.00516834
0.0338185
0.00500423
0.0340768
0.0048322
0.034324
0.00465202
0.03456
0.00446357
0.0347841
0.00426674
0.0349961
0.00406129
0.0351956
0.00384708
0.0353821
0.00362399
0.0355552
0.00339185
0.0357147
0.00315052
0.0358602
0.0028999
0.0359912
0.00263987
0.0361075
0.00237036
0.0362087
0.00209128
0.0362944
0.00180258
0.0363644
0.00150423
0.0364183
0.00119622
0.0364558
0.000878569
0.0364767
0.000551276
0.0364808
0.000214619
0.0364678
-0.000131748
0.0364374
-0.000488039
0.0363897
-0.000853661
0.0363243
-0.00122829
0.0362412
-0.00161159
0.0361404
-0.00200324
0.0360218
-0.00240278
0.0358854
-0.00280977
0.0357314
-0.00322358
0.0355598
-0.00364366
0.0353709
-0.00406914
0.0351648
-0.00449934
0.0349418
-0.00493311
0.0347023
-0.00536962
0.0344466
-0.0058074
0.0341752
-0.00624537
0.0338885
-0.00668175
0.033587
-0.0071152
0.0332712
-0.0075435
0.0329418
-0.00796514
0.0325994
-0.0083773
0.0322447
-0.00877834
0.0318783
-0.00916491
0.0315011
-0.00953486
0.0311131
-0.00988435
0.0307144
-0.0102117
-0.0105074
0.0302978
0.0259614
0.00669036
-0.0255511
0.0263687
0.00665506
0.0267728
0.00661493
0.0271736
0.00657057
0.0275706
0.00652204
0.0279636
0.00646917
0.0283521
0.0064118
0.0287359
0.00634969
0.0291148
0.00628263
0.0294883
0.00621047
0.0298563
0.00613323
0.0302181
0.00605061
0.0305736
0.00596231
0.0309224
0.00586822
0.0312641
0.00576821
0.0315984
0.00566204
0.0319249
0.00554954
0.0322433
0.00543057
0.0325532
0.00530497
0.0328542
0.00517257
0.0331458
0.00503313
0.0334276
0.00488649
0.0336993
0.00473251
0.0339605
0.004571
0.0342108
0.00440177
0.0344497
0.00422466
0.0346769
0.00403953
0.034892
0.00384616
0.0350947
0.00364441
0.0352845
0.00343413
0.0354612
0.00321517
0.0356243
0.0029874
0.0357736
0.00275069
0.0359085
0.00250494
0.0360288
0.00225004
0.0361342
0.00198591
0.0362243
0.00171249
0.0362988
0.00142972
0.0363574
0.00113757
0.0363999
0.000836062
0.0364261
0.000525155
0.0364356
0.00020509
0.0364283
-0.000124477
0.0364041
-0.000463769
0.0363626
-0.000812244
0.036304
-0.00116961
0.036228
-0.0015356
0.0361346
-0.0019099
0.036024
-0.00229212
0.0358961
-0.00268187
0.035751
-0.00307854
0.035589
-0.00348165
0.0354103
-0.00389037
0.035215
-0.00430407
0.0350035
-0.00472163
0.0347761
-0.00514227
0.0345333
-0.00556452
0.0342753
-0.00598738
0.0340026
-0.00640909
0.0337157
-0.00682829
0.0334151
-0.00724294
0.0331013
-0.00765132
0.0327751
-0.00805103
0.0324367
-0.00843999
0.0320871
-0.00881532
0.0317268
-0.00917452
0.0313567
-0.00951422
0.0309772
-0.00983232
-0.0101275
0.0305974
0.0258224
0.00627912
-0.0254112
0.0262306
0.00624682
0.0266356
0.00620994
0.0270372
0.00616902
0.0274351
0.00612416
0.027829
0.00607523
0.0282188
0.00602202
0.0286041
0.00596442
0.0289844
0.00590226
0.0293596
0.00583533
0.0297292
0.00576355
0.030093
0.00568681
0.0304506
0.00560477
0.0308015
0.00551727
0.0311455
0.0054242
0.0314822
0.00532535
0.0318112
0.00522055
0.0321321
0.00510968
0.0324445
0.00499255
0.0327481
0.00486902
0.0330424
0.00473885
0.033327
0.00460188
0.0336015
0.00445794
0.0338657
0.00430685
0.034119
0.00414844
0.0343611
0.00398254
0.0345917
0.00380898
0.0348103
0.00362758
0.0350165
0.00343818
0.03521
0.00324062
0.0353904
0.00303476
0.0355574
0.00282045
0.0357105
0.00259756
0.0358495
0.00236597
0.0359739
0.00212558
0.0360836
0.00187628
0.036178
0.00161799
0.0362571
0.00135066
0.0363205
0.00107422
0.0363678
0.000788668
0.0363991
0.000493947
0.0364139
0.000190261
0.0364122
-0.000122758
0.0363937
-0.000445322
0.0363584
-0.000776948
0.0363062
-0.0011174
0.036237
-0.00146643
0.0361509
-0.0018238
0.036048
-0.00218915
0.0359282
-0.00256212
0.0357919
-0.00294219
0.0356391
-0.00332888
0.0354701
-0.00372139
0.0352852
-0.00411915
0.0350846
-0.00452104
0.0348687
-0.00492632
0.0346377
-0.00533355
0.0343921
-0.00574177
0.0341322
-0.0061492
0.0338585
-0.00655459
0.0335715
-0.00695591
0.0332716
-0.00735142
0.0329594
-0.00773888
0.0326354
-0.00811602
0.0323005
-0.00848035
0.0319549
-0.00882895
0.0315996
-0.00915889
0.0312344
-0.00946716
-0.00975062
0.0308575
0.0257052
0.00586678
-0.0252928
0.0261146
0.00583736
0.026521
0.00580356
0.0269241
0.00576599
0.0273235
0.00572469
0.0277191
0.00567963
0.0281105
0.00563063
0.0284974
0.00557752
0.0288795
0.00552018
0.0292564
0.00545843
0.0296278
0.00539212
0.0299935
0.00532114
0.030353
0.00524527
0.0307059
0.00516432
0.031052
0.00507814
0.0313908
0.00498657
0.0317219
0.00488941
0.0320451
0.00478654
0.0323598
0.00467778
0.0326659
0.00456297
0.0329628
0.00444193
0.0332502
0.00431449
0.0335277
0.00418046
0.0337949
0.00403968
0.0340513
0.00389196
0.0342967
0.00373714
0.0345307
0.00357504
0.0347527
0.0034055
0.0349626
0.00322834
0.0351598
0.00304341
0.035344
0.00285054
0.0355149
0.0026496
0.035672
0.00244043
0.035815
0.00222292
0.0359437
0.00199693
0.0360576
0.00176235
0.0361565
0.00151909
0.0362401
0.00126705
0.0363082
0.00100618
0.0363604
0.00073643
0.0363966
0.000457717
0.0364167
0.000170215
0.0364204
-0.000126491
0.0364077
-0.00043258
0.0363784
-0.000747639
0.0363324
-0.00107147
0.0362699
-0.0014039
0.0361908
-0.0017447
0.0360952
-0.00209358
0.0359833
-0.0024502
0.0358552
-0.00281406
0.035711
-0.00318472
0.0355511
-0.00356143
0.0353755
-0.00394359
0.0351846
-0.00433016
0.0349787
-0.00472038
0.034758
-0.00511288
0.034523
-0.00550672
0.0342739
-0.00590015
0.0340113
-0.00629198
0.0337355
-0.00668015
0.0334471
-0.00706303
0.0331466
-0.00743838
0.0328346
-0.00780401
0.0325118
-0.00815752
0.0321789
-0.00849611
0.0318375
-0.00881741
0.0314892
-0.00911887
-0.00940563
0.0311442
0.02561
0.00545264
-0.0251959
0.0260213
0.00542603
0.0264296
0.00539528
0.0268346
0.00536102
0.0272359
0.00532333
0.0276334
0.00528216
0.0280267
0.00523737
0.0284154
0.00518878
0.0287993
0.00513626
0.0291781
0.00507966
0.0295514
0.00501881
0.029919
0.00495357
0.0302805
0.0048838
0.0306355
0.00480931
0.0309837
0.00472995
0.0313247
0.00464554
0.0316582
0.00455594
0.0319837
0.00446098
0.032301
0.00436049
0.0326097
0.00425432
0.0329093
0.0041423
0.0331995
0.00402426
0.0334799
0.00390003
0.0337502
0.00376942
0.0340099
0.00363228
0.0342586
0.00348843
0.0344959
0.00333769
0.0347216
0.00317989
0.034935
0.00301487
0.035136
0.00284245
0.0353241
0.00266248
0.0354988
0.0024748
0.03566
0.00227926
0.0358072
0.00207571
0.0359401
0.00186402
0.0360584
0.00164405
0.0361618
0.00141569
0.03625
0.00117884
0.0363228
0.000933398
0.03638
0.000679295
0.0364213
0.000416428
0.0364465
0.000144935
0.0364557
-0.000135665
0.0364486
-0.000425493
0.0364252
-0.000724208
0.0363854
-0.00103166
0.0363292
-0.00134771
0.0362567
-0.00167218
0.0361679
-0.00200478
0.0360629
-0.00234522
0.0359419
-0.00269304
0.035805
-0.0030478
0.0356523
-0.00340882
0.0354843
-0.0037755
0.035301
-0.00414687
0.0351028
-0.00452217
0.03489
-0.00490008
0.0346629
-0.00527969
0.034422
-0.00565927
0.0341677
-0.00603768
0.0339005
-0.00641286
0.0336207
-0.0067833
0.0333291
-0.00714678
0.0330263
-0.00750122
0.0327131
-0.00784427
0.0323904
-0.00817341
0.0320591
-0.00848614
0.0317204
-0.00878009
-0.00905355
0.0313683
0.0255404
0.00503653
-0.0251243
0.0259536
0.00501276
0.0263638
0.00498512
0.0267706
0.00495425
0.0271737
0.0049202
0.0275729
0.00488291
0.027968
0.00484226
0.0283587
0.00479812
0.0287446
0.00475035
0.0291255
0.0046988
0.0295009
0.00464334
0.0298707
0.00458381
0.0302344
0.00452007
0.0305918
0.00445196
0.0309424
0.00437932
0.0312859
0.00430201
0.031622
0.00421986
0.0319503
0.00413271
0.0322704
0.00404042
0.0325819
0.0039428
0.0328845
0.00383971
0.0331778
0.00373098
0.0334614
0.00361643
0.0337349
0.00349591
0.0339979
0.00336924
0.0342501
0.00323624
0.034491
0.00309675
0.0347203
0.0029506
0.0349376
0.00279761
0.0351424
0.00263761
0.0353345
0.00247043
0.0355134
0.0022959
0.0356788
0.00211387
0.0358303
0.00192418
0.0359676
0.00172667
0.0360905
0.0015212
0.0361985
0.00130764
0.0362915
0.00108586
0.0363692
0.000855735
0.0364313
0.000617175
0.0364777
0.00037006
0.0365081
0.000114491
0.0365225
-0.000150091
0.0365208
-0.000423715
0.0365027
-0.000706112
0.0364682
-0.000997186
0.0364173
-0.00129683
0.03635
-0.00160488
0.0362664
-0.00192112
0.0361664
-0.00224526
0.0360503
-0.00257692
0.0359182
-0.00291568
0.0357703
-0.00326092
0.0356068
-0.00361206
0.0354282
-0.00396822
0.0352346
-0.00432862
0.0350266
-0.00469202
0.0348044
-0.0050575
0.0345685
-0.00542337
0.0343193
-0.00578855
0.0340575
-0.00615099
0.0337835
-0.00650928
0.033498
-0.00686131
0.0332018
-0.00720502
0.0328958
-0.0075383
0.0325811
-0.00785869
0.0322586
-0.00816363
0.0319301
-0.00845167
-0.00871836
0.031595
0.0254958
0.00461851
-0.0250778
0.025911
0.00459756
0.0263232
0.00457296
0.026732
0.00454542
0.0271372
0.00451497
0.0275386
0.00448153
0.0279359
0.00444498
0.0283288
0.00440522
0.028717
0.00436213
0.0291003
0.00431556
0.0294782
0.0042654
0.0298505
0.00421149
0.0302169
0.00415369
0.030577
0.00409187
0.0309304
0.00402588
0.0312769
0.00395556
0.031616
0.00388076
0.0319474
0.00380133
0.0322707
0.00371711
0.0325855
0.00362796
0.0328915
0.0035337
0.0331883
0.00343418
0.0334755
0.00332923
0.0337527
0.00321869
0.0340196
0.00310239
0.0342757
0.00298016
0.0345206
0.00285183
0.034754
0.00271721
0.0349754
0.00257615
0.0351846
0.00242846
0.0353811
0.00227396
0.0355645
0.0021125
0.0357344
0.00194389
0.0358906
0.00176798
0.0360327
0.00158459
0.0361603
0.00139358
0.0362732
0.0011948
0.0363709
0.000988089
0.0364533
0.000773335
0.0365201
0.000550403
0.036571
0.000319169
0.0366058
7.96884e-05
0.0366244
-0.000168665
0.0366265
-0.000425817
0.036612
-0.000691595
0.0365807
-0.000965955
0.0365327
-0.00124884
0.036468
-0.00154013
0.0363865
-0.00183967
0.0362885
-0.00214722
0.036174
-0.00246247
0.0360434
-0.00278501
0.0358968
-0.00311433
0.0357346
-0.00344985
0.0355571
-0.00379076
0.0353648
-0.00413629
0.0351581
-0.00448527
0.0349373
-0.00483676
0.0347031
-0.00518915
0.0344559
-0.0055414
0.0341964
-0.00589148
0.0339253
-0.00623816
0.0336433
-0.00657931
0.0333513
-0.00691297
0.0330502
-0.00723727
0.0327412
-0.00754964
0.0324252
-0.00784766
0.0321033
-0.00812974
-0.00838938
0.0317743
0.0254787
0.00419851
-0.0250587
0.025896
0.00418025
0.0263104
0.00415857
0.0267216
0.00413422
0.0271293
0.00410725
0.0275333
0.00407755
0.0279332
0.00404503
0.0283289
0.00400958
0.0287199
0.00397107
0.0291061
0.0039294
0.0294871
0.00388444
0.0298625
0.00383605
0.0302321
0.00378411
0.0305955
0.00372847
0.0309524
0.003669
0.0313024
0.00360556
0.0316451
0.003538
0.0319803
0.00346617
0.0323075
0.00338992
0.0326263
0.00330911
0.0329364
0.00322358
0.0332374
0.00313317
0.033529
0.00303772
0.0338106
0.00293707
0.0340819
0.00283105
0.0343426
0.0027195
0.0345922
0.00260224
0.0348303
0.00247911
0.0350565
0.00234994
0.0352704
0.00221453
0.0354716
0.00207273
0.0356598
0.00192436
0.0358344
0.00176925
0.0359952
0.00160722
0.0361417
0.00143811
0.0362735
0.00126175
0.0363903
0.00107798
0.0364917
0.000886657
0.0365775
0.00068762
0.0366471
0.000480718
0.0367005
0.000265819
0.0367373
4.28996e-05
0.0367573
-0.0001887
0.0367603
-0.000428839
0.0367462
-0.000677462
0.0367148
-0.000934592
0.0366662
-0.00120023
0.0366004
-0.00147432
0.0365175
-0.00175677
0.0364177
-0.00204741
0.0363012
-0.00234598
0.0361684
-0.00265214
0.0360194
-0.00296543
0.0358549
-0.00328529
0.0356751
-0.00361098
0.0354806
-0.00394176
0.0352718
-0.00427652
0.0350494
-0.00461431
0.0348138
-0.00495361
0.0345659
-0.00529342
0.0343061
-0.00563171
0.0340354
-0.00596744
0.0337544
-0.00629833
0.033464
-0.00662258
0.0331651
-0.0069384
0.0328586
-0.00724311
0.0325454
-0.00753448
0.0322262
-0.00781058
-0.00806291
0.0318998
0.0254948
0.0037763
-0.0250726
0.0259144
0.00376059
0.0263313
0.0037417
0.0267451
0.00372039
0.0271556
0.00369673
0.0275626
0.00367062
0.0279656
0.00364197
0.0283645
0.00361067
0.028759
0.00357663
0.0291487
0.00353971
0.0295333
0.00349981
0.0299125
0.00345681
0.0302861
0.00341058
0.0306535
0.00336099
0.0310146
0.00330792
0.031369
0.00325123
0.0317162
0.00319078