/*--------------------------------*- C++ -*----------------------------------*\
| =========                 |                                                 |
| \\      /  F ield         | OpenFOAM: The Open Source CFD Toolbox           |
|  \\    /   O peration     | Version:  2312                                  |
|   \\  /    A nd           | Website:  www.openfoam.com                      |
|    \\/     M anipulation  |                                                 |
\*---------------------------------------------------------------------------*/
FoamFile
{
    version     2.0;
    format      ascii;
    arch        "LSB;label=32;scalar=64";
    class       volVectorField;
    location    "1000";
    object      U;
}
// * * * * * * * * * * * * * * * * * * * * * * * * * * * * * * * * * * * * * //

dimensions      [0 1 -1 0 0 0 0];

internalField   nonuniform List<vector> 
76025
(
(1.00597 -0.165014 0)
(1.01134 -0.16484 -5.96998e-21)
(1.0167 -0.164547 0)
(1.02202 -0.164081 0)
(1.02756 -0.163507 1.6783e-20)
(1.03316 -0.162417 3.86343e-20)
(1.03892 -0.161484 -7.09581e-20)
(1.04475 -0.160105 3.13614e-20)
(1.05045 -0.158694 1.22015e-20)
(1.0561 -0.157023 -1.3077e-20)
(1.06179 -0.155131 8.19093e-22)
(1.06753 -0.152946 -4.43757e-20)
(1.07329 -0.150611 5.90425e-20)
(1.07895 -0.147978 0)
(1.08439 -0.144933 -1.7407e-20)
(1.08984 -0.14196 0)
(1.09516 -0.138412 0)
(1.10055 -0.134867 0)
(1.10582 -0.130883 -1.96684e-20)
(1.11095 -0.126889 2.17835e-20)
(1.11595 -0.122447 2.26161e-20)
(1.12079 -0.11784 6.85929e-20)
(1.12537 -0.112947 -4.64892e-20)
(1.12975 -0.107736 -7.48457e-20)
(1.13395 -0.102372 -1.5077e-21)
(1.1381 -0.0967981 -2.84029e-20)
(1.14204 -0.0906532 8.14124e-20)
(1.14583 -0.0844953 -8.20122e-20)
(1.14949 -0.0778911 2.78182e-20)
(1.15295 -0.070791 -2.85779e-20)
(1.15606 -0.0641089 -2.95055e-20)
(1.15902 -0.0570362 6.26897e-20)
(1.16165 -0.0493873 -9.50037e-20)
(1.1641 -0.0417541 -1.64984e-20)
(1.16627 -0.0336878 8.41693e-20)
(1.16815 -0.0256104 3.18782e-22)
(1.16984 -0.0170533 -1.70728e-20)
(1.1712 -0.0082595 9.19809e-21)
(1.17223 0.000453134 4.85343e-22)
(1.17285 0.00954727 -1.39707e-20)
(1.17308 0.0187617 9.52939e-21)
(1.17311 0.028318 -4.7086e-21)
(1.17278 0.0381408 9.33547e-21)
(1.17198 0.0480639 -1.86337e-20)
(1.17069 0.0581821 -1.89774e-20)
(1.16906 0.068461 3.60158e-20)
(1.16708 0.0789435 3.70552e-20)
(1.16451 0.0895923 -1.11391e-19)
(1.16141 0.10041 7.05923e-20)
(1.15797 0.111371 -2.18785e-21)
(1.15407 0.122495 -1.77011e-19)
(1.1496 0.133787 -6.74744e-20)
(1.14463 0.145158 7.02091e-20)
(1.13907 0.156738 0)
(1.13265 0.168312 -6.41403e-20)
(1.1256 0.180104 -6.69318e-20)
(1.11799 0.191881 1.36869e-21)
(1.10944 0.203935 -6.2863e-20)
(1.10013 0.216251 6.04692e-20)
(1.09006 0.228792 -1.74891e-19)
(1.07966 0.240332 -1.19973e-19)
(1.06763 0.252865 -8.08968e-21)
(1.05474 0.265432 0)
(1.041 0.277918 2.69466e-19)
(1.02606 0.290221 -9.68411e-20)
(1.00991 0.302813 5.17483e-20)
(0.993142 0.315672 -9.46775e-20)
(0.97523 0.327889 9.98286e-20)
(0.956824 0.340102 1.83159e-19)
(1.00562 -0.174366 -5.63472e-21)
(1.01135 -0.17421 -2.12337e-20)
(1.01709 -0.173876 2.71796e-20)
(1.02283 -0.173367 0)
(1.02858 -0.172678 -4.74479e-20)
(1.03447 -0.171742 -3.94549e-21)
(1.04035 -0.170599 4.21232e-20)
(1.04635 -0.169227 0)
(1.05241 -0.167641 8.48057e-22)
(1.05845 -0.165844 1.33732e-20)
(1.06447 -0.163816 -1.42641e-20)
(1.07051 -0.161542 9.98048e-22)
(1.07653 -0.159033 0)
(1.08256 -0.156269 0)
(1.08854 -0.153217 -3.84924e-20)
(1.09437 -0.149948 9.49588e-20)
(1.10017 -0.146369 2.07917e-20)
(1.10584 -0.142569 -6.47008e-20)
(1.11148 -0.138473 4.29522e-20)
(1.11696 -0.134149 -2.21924e-20)
(1.12238 -0.12953 2.52592e-20)
(1.12765 -0.124656 -4.8341e-20)
(1.13274 -0.119498 5.18169e-20)
(1.13764 -0.114051 -7.97949e-20)
(1.14235 -0.108336 5.36543e-20)
(1.14689 -0.102364 8.43631e-20)
(1.15126 -0.0961078 -5.71895e-20)
(1.15535 -0.0895833 0)
(1.15925 -0.0827589 0)
(1.16298 -0.0756394 -3.25228e-20)
(1.16645 -0.06833 0)
(1.1697 -0.0607515 -3.42871e-20)
(1.17269 -0.0528821 3.44621e-20)
(1.17535 -0.0447549 -5.27449e-20)
(1.17776 -0.0363522 1.00119e-21)
(1.17985 -0.0277099 -1.7873e-20)
(1.18169 -0.0187586 0)
(1.18322 -0.00963611 -3.85171e-20)
(1.1844 -0.000303915 2.96635e-20)
(1.18521 0.0092636 -2.48422e-20)
(1.18564 0.0190947 1.53156e-20)
(1.18573 0.0292105 -1.56876e-22)
(1.18541 0.0393875 5.49659e-21)
(1.18463 0.0497407 -5.12021e-21)
(1.18341 0.0602745 4.135e-20)
(1.18175 0.0710492 -2.07316e-20)
(1.17965 0.0819552 -2.11888e-20)
(1.17703 0.0929818 3.85198e-20)
(1.17387 0.104253 1.17234e-19)
(1.17023 0.115734 -1.13082e-21)
(1.16607 0.127347 1.1311e-19)
(1.16133 0.139101 -3.73059e-20)
(1.156 0.150969 -1.08041e-19)
(1.15006 0.162922 7.29679e-20)
(1.14342 0.174915 0)
(1.13602 0.18721 2.10469e-19)
(1.12799 0.199519 -8.8664e-22)
(1.11915 0.211977 -6.79505e-20)
(1.10954 0.224545 -6.83384e-20)
(1.0992 0.237194 0)
(1.08806 0.249874 5.97291e-20)
(1.07591 0.262612 1.81927e-19)
(1.06282 0.275402 0)
(1.04885 0.288225 -1.1378e-19)
(1.03387 0.301041 6.54036e-20)
(1.01765 0.314096 -1.11997e-19)
(1.00053 0.327275 5.50278e-20)
(0.982171 0.339948 -1.01893e-19)
(0.962828 0.353969 -9.69669e-20)
(1.00528 -0.184229 3.16632e-20)
(1.01132 -0.184038 -1.86417e-20)
(1.0174 -0.183668 8.33433e-21)
(1.02355 -0.183123 -3.81136e-20)
(1.02972 -0.182369 4.82832e-20)
(1.03592 -0.1814 4.60937e-20)
(1.04213 -0.180192 -5.82844e-20)
(1.04839 -0.178756 0)
(1.0547 -0.177077 9.40152e-22)
(1.06104 -0.175157 0)
(1.0674 -0.17299 1.64626e-20)
(1.07376 -0.170575 -1.63694e-20)
(1.08009 -0.167906 -9.19321e-20)
(1.08641 -0.164977 7.32479e-20)
(1.09271 -0.16178 -1.91901e-20)
(1.09895 -0.158303 -6.25832e-20)
(1.10514 -0.154557 2.13288e-20)
(1.11123 -0.150531 2.19734e-20)
(1.11723 -0.146237 7.24443e-20)
(1.12311 -0.141658 -4.80833e-20)
(1.12887 -0.136802 -2.62502e-20)
(1.13449 -0.13166 5.36932e-20)
(1.13996 -0.126229 -2.55658e-20)
(1.14527 -0.120499 -2.90976e-20)
(1.15041 -0.114476 0)
(1.15536 -0.108165 3.09831e-20)
(1.16008 -0.101583 3.08672e-20)
(1.16458 -0.0947093 -3.01376e-20)
(1.16884 -0.0875411 0)
(1.17287 -0.0800902 6.74728e-20)
(1.17667 -0.0723547 -3.56108e-20)
(1.18021 -0.064353 -2.01289e-21)
(1.18344 -0.0560895 0)
(1.18637 -0.0475455 1.81224e-20)
(1.189 -0.0387349 -5.7003e-20)
(1.19132 -0.029658 3.87626e-20)
(1.19331 -0.0203228 0)
(1.19496 -0.0107535 3.0435e-20)
(1.19625 -0.000942244 -3.14397e-20)
(1.19716 0.00909786 -5.17576e-21)
(1.19767 0.0193799 0)
(1.19778 0.029892 -1.10449e-20)
(1.19747 0.040542 -5.50072e-21)
(1.19671 0.0513853 5.14326e-21)
(1.19549 0.0624252 -3.18914e-20)
(1.1938 0.0736608 -2.21176e-20)
(1.19161 0.0850615 4.14456e-20)
(1.1889 0.0966333 -4.2103e-20)
(1.18564 0.108386 4.27326e-20)
(1.18185 0.120311 -4.12063e-20)
(1.1775 0.132368 -3.94195e-20)
(1.17257 0.144554 8.23872e-20)
(1.16703 0.156866 0)
(1.16086 0.169289 8.00456e-20)
(1.154 0.18182 2.76675e-21)
(1.14642 0.194497 -7.48822e-20)
(1.13813 0.207269 -7.33318e-20)
(1.12908 0.220153 1.44736e-19)
(1.11927 0.233152 -2.69115e-21)
(1.10866 0.246249 7.1917e-20)
(1.09726 0.259378 -1.41019e-19)
(1.08494 0.272555 -7.19459e-20)
(1.07168 0.285832 -1.1658e-21)
(1.05747 0.29919 -6.43417e-20)
(1.04227 0.312588 -5.84017e-20)
(1.02594 0.326074 -1.87369e-19)
(1.0086 0.33971 0)
(0.98991 0.352985 -5.68343e-20)
(0.970594 0.367793 5.54656e-20)
(1.00515 -0.194734 0)
(1.01144 -0.194516 -7.42351e-21)
(1.01781 -0.194109 -4.58405e-20)
(1.02429 -0.193517 3.71507e-20)
(1.03084 -0.192709 3.53862e-20)
(1.03742 -0.191669 -5.80859e-20)
(1.04402 -0.190388 1.26003e-20)
(1.05064 -0.188865 -1.45862e-20)
(1.05728 -0.187092 -1.4646e-20)
(1.06394 -0.185064 -6.69045e-20)
(1.07061 -0.182773 6.77392e-20)
(1.07729 -0.180216 7.51612e-20)
(1.08395 -0.177389 -1.65725e-20)
(1.09059 -0.174287 -8.11602e-20)
(1.0972 -0.170904 6.35429e-20)
(1.10378 -0.167234 -2.30415e-20)
(1.1103 -0.163279 2.40756e-20)
(1.11674 -0.159033 2.51048e-20)
(1.12309 -0.154498 -7.62864e-20)
(1.12934 -0.14967 2.44824e-20)
(1.13545 -0.144548 2.65393e-20)
(1.14143 -0.139127 0)
(1.14725 -0.133403 6.12016e-20)
(1.15291 -0.127375 -3.01259e-20)
(1.15839 -0.121044 -6.32924e-20)
(1.16367 -0.114414 -6.61799e-20)
(1.16875 -0.107484 1.31644e-19)
(1.17359 -0.100249 -6.82154e-20)
(1.1782 -0.0927149 0)
(1.18254 -0.0848865 -7.1963e-20)
(1.18663 -0.0767716 -1.37232e-21)
(1.19042 -0.0683772 7.42417e-20)
(1.19392 -0.0597011 -3.90707e-20)
(1.1971 -0.0507438 9.96848e-20)
(1.19995 -0.0415079 -1.93713e-20)
(1.20247 -0.0320058 0)
(1.20463 -0.0222413 0)
(1.20643 -0.0122247 1.1136e-20)
(1.20785 -0.0019637 1.07569e-20)
(1.20887 0.00853814 5.80752e-21)
(1.20947 0.019275 -1.85131e-22)
(1.20964 0.0302523 5.70646e-21)
(1.20937 0.0414014 0)
(1.20862 0.0527409 -6.49895e-22)
(1.20739 0.064273 0)
(1.20566 0.0759924 2.15741e-20)
(1.20341 0.0878916 7.29814e-24)
(1.20063 0.0999624 -6.86658e-20)
(1.19729 0.112197 0)
(1.19339 0.1246 -4.38154e-20)
(1.1889 0.137142 4.33756e-20)
(1.18382 0.149813 -8.3006e-20)
(1.17811 0.162603 0)
(1.17175 0.175508 -2.48617e-19)
(1.1647 0.188529 2.6836e-21)
(1.15694 0.201671 8.09011e-20)
(1.14846 0.214929 7.93801e-20)
(1.13924 0.228286 0)
(1.12924 0.24175 0)
(1.11845 0.255299 -7.23645e-20)
(1.10684 0.26892 1.41849e-19)
(1.09435 0.282608 1.38836e-19)
(1.08093 0.296376 0)
(1.06656 0.310231 -1.42227e-19)
(1.05118 0.324137 0)
(1.03473 0.338131 1.91286e-19)
(1.01722 0.352275 -6.43037e-20)
(0.998373 0.366157 -6.14362e-20)
(0.978888 0.381467 -6.33787e-20)
(1.00515 -0.205921 0)
(1.01175 -0.205698 0)
(1.01841 -0.205268 -1.00273e-20)
(1.0252 -0.204638 4.54762e-20)
(1.03207 -0.203777 -5.75607e-20)
(1.039 -0.202669 1.25956e-20)
(1.04598 -0.201308 0)
(1.05298 -0.199689 1.47804e-20)
(1.06001 -0.197808 0)
(1.06704 -0.19566 3.61652e-20)
(1.07408 -0.193236 3.5693e-21)
(1.08111 -0.190531 -3.82031e-20)
(1.08812 -0.187541 0)
(1.09511 -0.18426 4.48764e-20)
(1.10206 -0.180684 -1.37721e-19)
(1.10896 -0.176809 9.45638e-20)
(1.11581 -0.172632 -1.24669e-19)
(1.12258 -0.168151 2.57832e-20)
(1.12927 -0.163363 -2.80591e-20)
(1.13585 -0.158267 2.74367e-20)
(1.14231 -0.152859 2.94126e-20)
(1.14863 -0.14714 -9.08447e-20)
(1.15479 -0.141105 -6.27731e-20)
(1.16078 -0.134754 0)
(1.16659 -0.128087 6.77032e-20)
(1.17219 -0.121106 3.53177e-20)
(1.17757 -0.113812 -1.04215e-19)
(1.18272 -0.106206 3.53807e-20)
(1.18762 -0.0982888 -7.56103e-20)
(1.19226 -0.0900645 1.13211e-19)
(1.19662 -0.0815397 -4.05292e-20)
(1.20068 -0.0727184 2.07592e-20)
(1.20442 -0.0636052 0)
(1.20783 -0.0542043 -2.05331e-20)
(1.21089 -0.0445154 -2.09924e-20)
(1.2136 -0.034554 0)
(1.21593 -0.0243205 2.31822e-20)
(1.21788 -0.0138232 -3.42675e-20)
(1.21942 -0.00307298 2.33134e-20)
(1.22054 0.00792493 -1.19663e-20)
(1.22122 0.0191624 -2.06614e-22)
(1.22145 0.0306466 -9.49638e-21)
(1.22121 0.0423077 3.08361e-21)
(1.22046 0.0541545 1.1968e-20)
(1.21922 0.0661909 6.89882e-22)
(1.21745 0.0784129 7.2769e-20)
(1.21516 0.0908155 0)
(1.21233 0.103389 4.63148e-20)
(1.20893 0.116124 -1.44977e-21)
(1.20495 0.129014 -4.6652e-20)
(1.20036 0.142045 0)
(1.19516 0.155205 -4.53238e-20)
(1.18932 0.168488 4.49696e-20)
(1.18281 0.181888 8.59161e-20)
(1.17562 0.195402 0)
(1.16771 0.209029 -1.68622e-19)
(1.15909 0.222766 1.68721e-19)
(1.14971 0.236605 -1.65847e-19)
(1.13957 0.250544 -2.14119e-21)
(1.12863 0.264573 0)
(1.11685 0.278686 -7.79332e-20)
(1.10421 0.292874 7.43282e-20)
(1.09064 0.307151 7.99306e-20)
(1.07613 0.321511 1.42603e-19)
(1.06061 0.33595 -2.20703e-19)
(1.04401 0.350481 1.40687e-19)
(1.02635 0.36515 -6.9103e-20)
(1.00739 0.379605 7.23462e-20)
(0.987869 0.39548 1.87931e-19)
(1.00506 -0.217811 3.48371e-20)
(1.01208 -0.217592 5.07528e-21)
(1.01913 -0.21715 -4.05037e-20)
(1.02628 -0.216492 0)
(1.0335 -0.215585 1.25251e-20)
(1.04079 -0.214413 0)
(1.04813 -0.21297 -3.20169e-20)
(1.05551 -0.211253 -2.54733e-21)
(1.06293 -0.209257 5.25761e-20)
(1.07036 -0.206978 -1.95774e-20)
(1.07779 -0.204409 -1.94569e-20)
(1.08521 -0.201544 -2.19745e-20)
(1.09262 -0.198377 0)
(1.09998 -0.194905 0)
(1.10731 -0.191122 2.39573e-20)
(1.11458 -0.187024 2.50636e-20)
(1.12178 -0.18261 -5.50941e-20)
(1.1289 -0.177875 5.49647e-20)
(1.13593 -0.172816 5.84651e-20)
(1.14285 -0.167434 -6.17172e-20)
(1.14964 -0.161723 1.23665e-19)
(1.15629 -0.155683 2.52126e-22)
(1.16278 -0.149314 -6.80241e-20)
(1.16909 -0.142616 -3.57096e-20)
(1.17521 -0.135589 -7.24063e-20)
(1.18113 -0.128234 7.24832e-20)
(1.18681 -0.120554 7.65561e-20)
(1.19225 -0.11255 -7.67247e-20)
(1.19744 -0.104222 0)
(1.20234 -0.0955787 0)
(1.20696 -0.0866228 1.04719e-19)
(1.21126 -0.0773552 2.04331e-21)
(1.21523 -0.0677819 -4.35513e-20)
(1.21886 -0.0579127 -4.5284e-20)
(1.22212 -0.0477454 4.55606e-20)
(1.22501 -0.0372981 0)
(1.2275 -0.0265706 -2.32801e-20)
(1.22957 -0.0155755 -3.70795e-20)
(1.23122 -0.00432754 2.4745e-20)
(1.23243 0.00717514 -3.58762e-22)
(1.23317 0.0189181 -2.01789e-21)
(1.23345 0.0309077 9.68272e-21)
(1.23324 0.0430793 6.77061e-21)
(1.23253 0.0554385 1.31111e-20)
(1.23131 0.0679956 -6.43191e-20)
(1.22954 0.0807394 6.6996e-22)
(1.22723 0.0936581 0)
(1.22435 0.106743 -5.20838e-20)
(1.22088 0.119988 1.50273e-19)
(1.21682 0.133387 -1.00576e-19)
(1.21215 0.146927 -4.88577e-20)
(1.20685 0.160597 -1.34886e-21)
(1.20089 0.17439 -4.60076e-20)
(1.19427 0.188299 6.30889e-22)
(1.18696 0.20232 9.31787e-20)
(1.17894 0.216451 -9.42569e-20)
(1.17018 0.230688 -8.95706e-20)
(1.16068 0.245027 1.77034e-19)
(1.1504 0.259463 -3.05532e-21)
(1.13932 0.273995 8.49529e-20)
(1.12741 0.288614 -8.44177e-20)
(1.11462 0.303319 7.9744e-20)
(1.10093 0.318122 -1.56136e-19)
(1.08626 0.333002 -7.82968e-20)
(1.07061 0.347997 1.50412e-19)
(1.05387 0.363052 -7.99142e-20)
(1.03608 0.378294 -2.24766e-19)
(1.01697 0.393258 -6.60672e-20)
(0.997314 0.409705 0)
(1.00472 -0.230456 0)
(1.01225 -0.23024 1.07388e-20)
(1.01978 -0.229785 -9.1635e-22)
(1.02739 -0.229102 0)
(1.03505 -0.228153 0)
(1.04276 -0.22692 1.60139e-20)
(1.05051 -0.225397 -5.20694e-20)
(1.0583 -0.22358 7.18286e-20)
(1.06611 -0.221466 -3.5751e-20)
(1.07395 -0.219049 1.98043e-20)
(1.08179 -0.216326 0)
(1.08963 -0.21329 2.22141e-20)
(1.09744 -0.209937 -2.49749e-20)
(1.10522 -0.206262 0)
(1.11295 -0.202258 0)
(1.12062 -0.197924 2.81313e-20)
(1.12821 -0.193255 2.53178e-21)
(1.13571 -0.188249 -5.90559e-20)
(1.14311 -0.182902 -6.19561e-20)
(1.15038 -0.177214 6.37676e-20)
(1.15753 -0.171186 3.26817e-20)
(1.16452 -0.164811 1.40505e-19)
(1.17134 -0.158091 1.26568e-21)
(1.17798 -0.151025 -3.92531e-20)
(1.18442 -0.143614 7.531e-20)
(1.19064 -0.135861 -3.91306e-20)
(1.19663 -0.127767 7.97388e-20)
(1.20235 -0.119337 0)
(1.2078 -0.110573 0)
(1.21297 -0.101479 0)
(1.21782 -0.0920599 -2.17209e-20)
(1.22235 -0.0823213 -4.48154e-20)
(1.22654 -0.0722651 4.63355e-20)
(1.23036 -0.0619061 4.81318e-20)
(1.23381 -0.0512459 -4.84154e-20)
(1.23686 -0.0402944 0)
(1.2395 -0.0290665 2.55628e-20)
(1.24172 -0.0175586 -1.31659e-20)
(1.24349 -0.00578672 0)
(1.24481 0.00624316 1.3488e-20)
(1.24566 0.0185193 -2.55417e-21)
(1.24602 0.0310431 1.738e-21)
(1.24587 0.0437652 -6.78821e-21)
(1.24519 0.0566739 0)
(1.24398 0.0697699 -2.75563e-20)
(1.24221 0.0830496 2.72767e-20)
(1.23986 0.0965052 0)
(1.23693 0.110128 -1.44064e-21)
(1.2334 0.123908 1.47616e-21)
(1.22926 0.137835 5.11548e-20)
(1.2245 0.151901 0)
(1.21909 0.166095 -2.96264e-21)
(1.21303 0.180411 -4.93516e-20)
(1.2063 0.19484 -1.51443e-19)
(1.19886 0.209379 -2.66555e-21)
(1.19072 0.224025 9.45696e-20)
(1.18185 0.238775 0)
(1.17222 0.253626 0)
(1.16181 0.268572 9.56627e-20)
(1.15061 0.28362 0)
(1.13856 0.298753 0)
(1.12564 0.313992 -3.4069e-21)
(1.1118 0.329317 -8.64944e-20)
(1.09701 0.344748 -1.70473e-19)
(1.08121 0.360286 1.67736e-19)
(1.06435 0.375906 -1.06188e-20)
(1.04642 0.391703 7.38234e-20)
(1.02716 0.407294 7.68351e-20)
(1.00745 0.424217 0)
(1.00414 -0.243933 0)
(1.01219 -0.243714 -1.08743e-20)
(1.02025 -0.243245 3.90327e-20)
(1.02839 -0.242532 -1.20118e-20)
(1.03657 -0.241538 0)
(1.04477 -0.240244 -5.12393e-20)
(1.05301 -0.238641 9.00827e-20)
(1.06126 -0.236725 2.90139e-21)
(1.06953 -0.234492 -1.03407e-19)
(1.07782 -0.231937 1.99091e-20)
(1.0861 -0.229056 -2.42931e-20)
(1.09438 -0.225841 -2.56343e-20)
(1.10263 -0.22229 7.87691e-20)
(1.11084 -0.218399 -1.09364e-19)
(1.119 -0.21416 5.58565e-20)
(1.12709 -0.209576 -3.21367e-20)
(1.13509 -0.20464 1.24553e-19)
(1.143 -0.199347 -2.99914e-20)
(1.1508 -0.193695 3.59358e-20)
(1.15847 -0.187683 -3.34346e-20)
(1.16599 -0.181309 2.52675e-21)
(1.17335 -0.174574 -2.23804e-19)
(1.18053 -0.167477 -3.97934e-20)
(1.18751 -0.160021 -2.36859e-21)
(1.19428 -0.152204 1.22659e-19)
(1.20082 -0.14403 -4.08161e-20)
(1.2071 -0.135502 8.74286e-20)
(1.21312 -0.12662 -1.33341e-19)
(1.21885 -0.117389 0)
(1.22427 -0.107816 -4.70891e-20)
(1.22937 -0.0979084 4.72413e-20)
(1.23413 -0.087671 1.42722e-21)
(1.23853 -0.0771094 -2.57196e-20)
(1.24255 -0.0662312 -2.62546e-20)
(1.24619 -0.0550478 7.91507e-20)
(1.24941 -0.0435661 -5.26507e-20)
(1.25222 -0.0317932 4.10739e-20)
(1.25457 -0.0197435 -5.4976e-20)
(1.25647 -0.00742425 2.78372e-20)
(1.25789 0.00515687 -6.92289e-21)
(1.25882 0.0179861 0)
(1.25923 0.0310658 7.37464e-21)
(1.25912 0.0443471 -7.3464e-21)
(1.25846 0.0578151 -1.46784e-20)
(1.25723 0.071477 4.36943e-20)
(1.25544 0.085324 -2.97247e-20)
(1.25306 0.0993444 -2.86771e-20)
(1.25009 0.113527 0)
(1.2465 0.127861 -1.1438e-19)
(1.24229 0.142338 1.11588e-19)
(1.23745 0.156948 -5.35356e-20)
(1.23195 0.171683 5.32869e-20)
(1.22579 0.186536 5.57992e-20)
(1.21895 0.2015 1.05064e-19)
(1.2114 0.216571 1.02018e-19)
(1.20315 0.231745 0)
(1.19415 0.247022 -1.05018e-19)
(1.1844 0.262397 0)
(1.17386 0.277869 2.34666e-21)
(1.16253 0.293442 -9.3791e-20)
(1.15034 0.309105 9.56608e-20)
(1.1373 0.324884 9.04543e-20)
(1.12333 0.340748 -9.43019e-20)
(1.10841 0.356739 -2.14487e-21)
(1.09248 0.372836 3.28642e-21)
(1.07551 0.389025 2.53362e-19)
(1.05743 0.405424 8.61719e-20)
(1.03811 0.421613 8.0486e-20)
(1.01805 0.439202 -7.85854e-20)
(1.00343 -0.258321 0)
(1.01199 -0.258093 0)
(1.02057 -0.257603 2.93521e-20)
(1.02925 -0.256856 -4.39311e-20)
(1.03797 -0.255812 -1.7486e-20)
(1.04673 -0.25445 0)
(1.0555 -0.252761 0)
(1.06429 -0.250741 2.19206e-20)
(1.07309 -0.248384 -4.66266e-20)
(1.08188 -0.245685 -4.71157e-21)
(1.09066 -0.242639 1.25876e-19)
(1.09942 -0.239241 -2.60572e-20)
(1.10815 -0.235485 2.86068e-20)
(1.11683 -0.231369 -5.7437e-20)
(1.12545 -0.226883 3.18741e-20)
(1.134 -0.222028 0)
(1.14245 -0.216802 0)
(1.1508 -0.211202 1.28054e-21)
(1.15902 -0.205224 -1.08081e-19)
(1.16711 -0.198869 3.62913e-20)
(1.17504 -0.192131 -3.99716e-20)
(1.18279 -0.185015 3.88062e-20)
(1.19035 -0.17752 4.11906e-20)
(1.1977 -0.169647 -3.98783e-20)
(1.20483 -0.161398 -4.24927e-20)
(1.21171 -0.152774 0)
(1.21832 -0.143782 0)
(1.22465 -0.134426 7.04916e-20)
(1.23068 -0.12471 0)
(1.23639 -0.114639 5.02555e-20)
(1.24176 -0.104221 -5.04095e-20)
(1.24677 -0.0934599 -2.52978e-20)
(1.25141 -0.0823618 2.58349e-20)
(1.25565 -0.0709416 5.42854e-20)
(1.25948 -0.0592031 -2.68679e-20)
(1.26288 -0.0471548 -2.83213e-20)
(1.26583 -0.0348139 2.92828e-20)
(1.26831 -0.0221871 0)
(1.2703 -0.00928429 0)
(1.2718 0.00388428 7.75444e-21)
(1.27278 0.0173038 0)
(1.27323 0.0309744 0)
(1.27313 0.0448523 -2.36408e-20)
(1.27248 0.0589149 3.14369e-20)
(1.27125 0.0731667 -1.58743e-20)
(1.26943 0.0875992 2.97828e-20)
(1.26702 0.102201 0)
(1.264 0.116961 9.12994e-20)
(1.26035 0.13187 -1.66009e-21)
(1.25607 0.146915 0)
(1.25113 0.162089 -1.17174e-19)
(1.24554 0.177383 -1.85984e-21)
(1.23927 0.19279 -1.12854e-19)
(1.23232 0.208303 -5.81069e-20)
(1.22465 0.223921 -1.1093e-19)
(1.21627 0.239636 1.10074e-19)
(1.20715 0.255452 1.05027e-19)
(1.19727 0.271361 0)
(1.1866 0.287371 -1.04095e-19)
(1.17513 0.303478 3.47947e-21)
(1.16281 0.319685 0)
(1.14964 0.336008 0)
(1.13554 0.352425 9.39471e-20)
(1.1205 0.368982 0)
(1.10446 0.385644 0)
(1.08737 0.402419 -9.1205e-20)
(1.06921 0.419429 -8.32968e-20)
(1.04978 0.436266 -8.91236e-20)
(1.02957 0.454239 0)
(1.00266 -0.273704 0)
(1.01173 -0.273464 0)
(1.02084 -0.272946 0)
(1.03005 -0.272155 -1.74878e-20)
(1.03933 -0.271051 -2.06642e-20)
(1.04865 -0.269612 -3.32905e-21)
(1.05799 -0.267826 4.114e-20)
(1.06735 -0.265691 -2.21415e-20)
(1.07671 -0.2632 2.53418e-20)
(1.08607 -0.260347 5.19389e-20)
(1.09541 -0.257126 0)
(1.10471 -0.253532 0)
(1.11397 -0.249557 -1.46882e-21)
(1.12316 -0.2452 9.47987e-20)
(1.13229 -0.240457 -1.34467e-19)
(1.14133 -0.235321 -3.08222e-21)
(1.15028 -0.229792 7.05484e-20)
(1.1591 -0.223867 3.63011e-20)
(1.16779 -0.217545 -2.4777e-21)
(1.17633 -0.210826 0)
(1.1847 -0.203707 8.32854e-20)
(1.19288 -0.196187 0)
(1.20086 -0.188271 8.86023e-20)
(1.20862 -0.179959 -1.36552e-19)
(1.21612 -0.171254 1.40668e-19)
(1.22337 -0.162159 4.966e-20)
(1.23034 -0.152677 -7.54516e-20)
(1.237 -0.142816 7.66094e-20)
(1.24335 -0.132581 -5.12209e-20)
(1.24936 -0.121979 0)
(1.25501 -0.111014 -5.46476e-20)
(1.26029 -0.0996965 -2.94853e-20)
(1.26517 -0.0880328 5.58851e-20)
(1.26962 -0.0760301 -5.75434e-20)
(1.27365 -0.063701 2.94768e-20)
(1.27722 -0.0510548 -2.96034e-20)
(1.28031 -0.0381042 -1.47408e-20)
(1.28292 -0.024862 1.58948e-20)
(1.28502 -0.0113404 7.6692e-21)
(1.28659 0.00244872 -2.35983e-20)
(1.28763 0.0164894 -2.08298e-21)
(1.28813 0.0307795 0)
(1.28805 0.0452782 8.01019e-21)
(1.2874 0.059959 -1.5944e-20)
(1.28616 0.0748261 1.58542e-20)
(1.28431 0.0898704 0)
(1.28185 0.10508 0)
(1.27876 0.120443 3.27496e-20)
(1.27504 0.135947 -6.32359e-20)
(1.27066 0.151583 -1.2698e-19)
(1.26563 0.167341 2.47871e-19)
(1.25992 0.183211 -6.28939e-20)
(1.25353 0.199189 6.06311e-20)
(1.24645 0.215266 5.80483e-20)
(1.23866 0.231442 -1.17429e-19)
(1.23014 0.24771 1.16474e-19)
(1.22088 0.264075 0)
(1.21086 0.280529 -1.15868e-19)
(1.20005 0.297087 3.90297e-21)
(1.18845 0.313736 1.09014e-19)
(1.176 0.3305 0)
(1.1627 0.347369 0)
(1.14848 0.364353 0)
(1.13332 0.381481 2.02248e-19)
(1.11716 0.398705 9.97907e-20)
(1.09996 0.416105 9.1502e-20)
(1.08169 0.433639 -1.848e-19)
(1.06219 0.451197 -5.82346e-21)
(1.04199 0.469589 9.08041e-20)
(1.00187 -0.290175 0)
(1.01147 -0.289921 -3.1878e-20)
(1.02112 -0.289372 4.03443e-20)
(1.03089 -0.288533 -3.039e-20)
(1.04073 -0.287362 5.90359e-20)
(1.05062 -0.285833 2.25109e-20)
(1.06054 -0.283942 2.41841e-20)
(1.07049 -0.281679 0)
(1.08045 -0.279042 -5.30555e-20)
(1.0904 -0.276019 -5.58395e-20)
(1.10032 -0.27261 5.74816e-20)
(1.11021 -0.268806 -3.23008e-20)
(1.12005 -0.264604 3.54519e-20)
(1.12981 -0.259996 -2.9805e-20)
(1.1395 -0.254981 -1.4547e-19)
(1.14909 -0.24955 -3.27593e-21)
(1.15857 -0.243703 -3.23229e-21)
(1.16792 -0.237434 7.89093e-20)
(1.17713 -0.230743 4.04382e-20)
(1.18616 -0.223632 8.78283e-20)
(1.195 -0.216104 -8.48041e-20)
(1.20365 -0.208153 0)
(1.21207 -0.199787 2.99042e-21)
(1.22025 -0.191009 0)
(1.22817 -0.181823 -4.86097e-20)
(1.23582 -0.172227 -4.99176e-20)
(1.24317 -0.162227 2.5586e-20)
(1.2502 -0.151834 0)
(1.25688 -0.141046 2.84858e-20)
(1.26321 -0.129871 5.69475e-20)
(1.26915 -0.118322 -5.69811e-20)
(1.2747 -0.106404 2.85078e-20)
(1.27981 -0.0941278 -6.03247e-20)
(1.28449 -0.0815033 1.20837e-19)
(1.28871 -0.0685426 -3.08223e-20)
(1.29246 -0.0552583 0)
(1.29571 -0.0416642 -1.6568e-20)
(1.29844 -0.027774 9.66229e-22)
(1.30065 -0.0136011 2.47266e-20)
(1.30231 0.000841195 -2.09975e-20)
(1.30342 0.0155354 4.13134e-21)
(1.30395 0.0304772 -1.31564e-20)
(1.30389 0.0456278 8.67919e-21)
(1.30324 0.0609571 0)
(1.30197 0.0764689 0)
(1.30008 0.0921528 0)
(1.29756 0.107996 3.501e-20)
(1.2944 0.123986 3.47215e-20)
(1.29058 0.14011 0)
(1.28611 0.156357 6.6391e-20)
(1.28096 0.172718 6.93149e-20)
(1.27513 0.189183 6.66386e-20)
(1.2686 0.205747 0)
(1.26138 0.222402 0)
(1.25344 0.239149 -1.24021e-19)
(1.24478 0.255981 1.22942e-19)
(1.23537 0.272906 0)
(1.22521 0.289915 1.15258e-19)
(1.21427 0.307028 -1.13314e-19)
(1.20253 0.324229 -1.17785e-19)
(1.18995 0.341554 1.1167e-19)
(1.17651 0.358975 -1.10307e-19)
(1.16217 0.37654 0)
(1.14688 0.394224 -1.0206e-19)
(1.13059 0.412048 2.43348e-21)
(1.11326 0.430025 -2.05227e-19)
(1.09484 0.448158 -2.00314e-19)
(1.07514 0.46626 1.91071e-19)
(1.05488 0.485193 -8.9778e-20)
(1.00105 -0.307812 -7.68842e-21)
(1.01123 -0.307538 0)
(1.02146 -0.306952 -8.7926e-21)
(1.0318 -0.306061 5.16585e-20)
(1.04223 -0.304818 -9.6837e-20)
(1.05271 -0.303198 2.24936e-20)
(1.06323 -0.301195 -2.43532e-20)
(1.07378 -0.298801 5.57621e-20)
(1.08434 -0.296008 -2.77616e-20)
(1.09491 -0.292805 -2.93023e-20)
(1.10545 -0.289192 -3.31825e-20)
(1.11595 -0.285163 1.01559e-19)
(1.1264 -0.280708 -3.21503e-20)
(1.13679 -0.275825 1.1367e-19)
(1.14707 -0.270506 4.07187e-20)
(1.15724 -0.264755 3.47043e-21)
(1.1673 -0.258562 -8.14684e-20)
(1.1772 -0.25193 0)
(1.18695 -0.244854 0)
(1.19652 -0.237336 -4.78925e-20)
(1.2059 -0.229381 -4.63374e-20)
(1.21505 -0.220982 -1.0015e-19)
(1.22397 -0.212144 5.07467e-20)
(1.23263 -0.202868 1.05781e-19)
(1.24101 -0.193165 -1.05559e-19)
(1.24909 -0.183034 2.8348e-20)
(1.25684 -0.172476 2.90116e-20)
(1.26425 -0.161504 0)
(1.2713 -0.150125 -2.84834e-20)
(1.27796 -0.138342 -6.05202e-20)
(1.28421 -0.126167 -1.14771e-21)
(1.29003 -0.11361 6.18101e-20)
(1.29541 -0.100684 -3.28007e-20)
(1.30032 -0.0873996 0)
(1.30475 -0.0737708 1.69925e-20)
(1.30868 -0.059811 -1.72794e-20)
(1.31209 -0.0455351 1.65365e-20)
(1.31496 -0.030958 -3.46316e-20)
(1.31728 -0.016095 0)
(1.31902 -0.000961329 -4.59025e-21)
(1.32019 0.0144241 4.51964e-21)
(1.32075 0.0300546 -7.08351e-21)
(1.32071 0.0458923 2.75679e-20)
(1.32004 0.0619044 -5.4868e-20)
(1.31875 0.0780937 3.63046e-20)
(1.3168 0.0944483 3.61462e-20)
(1.31421 0.110955 -3.37457e-20)
(1.31096 0.127598 7.31747e-20)
(1.30703 0.144368 -7.05141e-20)
(1.30244 0.161248 -1.73475e-19)
(1.29716 0.178234 2.0059e-21)
(1.29118 0.195311 -6.63203e-20)
(1.28451 0.212478 0)
(1.27714 0.229725 0)
(1.26905 0.247056 -1.30615e-19)
(1.26023 0.264463 1.91459e-19)
(1.25068 0.281955 -1.274e-19)
(1.24037 0.29953 0)
(1.22928 0.317202 1.26187e-19)
(1.21739 0.334965 2.36114e-19)
(1.20468 0.35285 -1.14218e-19)
(1.19109 0.370834 1.16717e-21)
(1.17662 0.388973 1.13711e-19)
(1.16118 0.407219 -4.00984e-21)
(1.14476 0.425646 -2.17179e-19)
(1.12723 0.444187 2.09592e-19)
(1.10865 0.462946 1.01262e-19)
(1.08861 0.4816 0)
(1.06828 0.501387 0)
(1.00019 -0.326738 7.7465e-21)
(1.01099 -0.326455 4.80276e-20)
(1.02184 -0.325837 -3.81743e-20)
(1.03281 -0.324891 0)
(1.04387 -0.323566 -1.14553e-20)
(1.05499 -0.321836 -5.32936e-20)
(1.06615 -0.319693 3.86002e-20)
(1.07733 -0.317138 -7.56202e-20)
(1.08851 -0.314165 5.99997e-20)
(1.0997 -0.310764 0)
(1.11088 -0.306921 1.54308e-20)
(1.12202 -0.302641 0)
(1.13309 -0.297918 4.10959e-20)
(1.14409 -0.292743 -1.15771e-19)
(1.155 -0.287108 0)
(1.1658 -0.281016 0)
(1.17647 -0.274462 0)
(1.18699 -0.267444 -7.05704e-20)
(1.19734 -0.259961 9.43074e-20)
(1.20749 -0.252011 4.80459e-20)
(1.21743 -0.243597 0)
(1.22713 -0.234722 0)
(1.23658 -0.225382 0)
(1.24574 -0.215582 -1.41422e-19)
(1.2546 -0.205323 1.70191e-19)
(1.26314 -0.194616 -8.59774e-20)
(1.27133 -0.183463 -5.98807e-20)
(1.27915 -0.171872 6.17927e-20)
(1.28658 -0.159855 -6.17733e-20)
(1.2936 -0.14742 3.29274e-20)
(1.30019 -0.13458 -6.56065e-20)
(1.30632 -0.121345 3.14609e-20)
(1.31198 -0.107729 6.76006e-20)
(1.31715 -0.093745 3.54565e-20)
(1.32181 -0.0794067 -1.69533e-20)
(1.32594 -0.0647297 1.72308e-20)
(1.32951 -0.0497299 0)
(1.33252 -0.0344243 -1.11115e-21)
(1.33495 -0.0188299 9.31521e-21)
(1.33678 -0.00296367 5.36159e-23)
(1.338 0.0131535 -4.76955e-21)
(1.3386 0.0295126 1.20095e-20)
(1.33856 0.0460752 -1.96388e-20)
(1.33787 0.0628071 -9.93454e-21)
(1.33653 0.079709 1.97541e-20)
(1.33452 0.0967678 0)
(1.33184 0.113969 -7.56614e-20)
(1.32848 0.131295 -1.11293e-19)
(1.32443 0.148735 1.00242e-22)
(1.3197 0.166274 1.09216e-19)
(1.31427 0.183905 0)
(1.30815 0.201613 0)
(1.30132 0.2194 -7.29561e-20)
(1.29378 0.237252 1.41479e-19)
(1.28553 0.255179 1.8704e-21)
(1.27655 0.273171 -6.90175e-20)
(1.26683 0.291241 2.66038e-19)
(1.25635 0.309386 -1.31061e-19)
(1.2451 0.327622 -1.24669e-19)
(1.23305 0.345951 -2.54535e-19)
(1.22017 0.364392 -2.76819e-22)
(1.20643 0.382943 -1.19105e-21)
(1.19178 0.401638 3.00562e-21)
(1.17615 0.420454 2.2818e-19)
(1.15954 0.439454 -1.18734e-19)
(1.14181 0.458564 -1.12238e-19)
(1.12299 0.477931 1.13258e-19)
(1.10279 0.49723 1.11146e-19)
(1.08191 0.517434 0)
(0.999282 -0.347035 -3.77647e-20)
(1.01075 -0.346728 1.78014e-20)
(1.02226 -0.346063 0)
(1.0339 -0.345052 -1.24965e-20)
(1.04562 -0.343638 0)
(1.0574 -0.341799 4.33514e-20)
(1.06923 -0.339524 -2.76229e-20)
(1.08109 -0.336807 6.43953e-20)
(1.09297 -0.333645 -6.51689e-20)
(1.10483 -0.330035 -1.84632e-20)
(1.11668 -0.325961 9.48939e-20)
(1.1285 -0.321414 -7.63468e-20)
(1.14026 -0.316401 0)
(1.15193 -0.310911 -8.75733e-20)
(1.1635 -0.304943 1.78195e-19)
(1.17495 -0.29849 -9.05888e-20)
(1.18626 -0.291553 0)
(1.19741 -0.284121 -1.25297e-19)
(1.20837 -0.276198 1.78806e-19)
(1.21913 -0.267777 -1.04153e-19)
(1.22966 -0.258864 0)
(1.23993 -0.24946 0)
(1.24993 -0.239568 0)
(1.25963 -0.229193 2.87057e-20)
(1.269 -0.21834 6.15274e-20)
(1.27803 -0.207015 -6.14187e-20)
(1.28669 -0.195225 3.08463e-20)
(1.29495 -0.18298 0)
(1.3028 -0.170289 6.70882e-20)
(1.31021 -0.157165 -9.99353e-20)
(1.31716 -0.143618 0)
(1.32363 -0.129661 7.04654e-20)
(1.3296 -0.11531 -3.47291e-20)
(1.33504 -0.100579 -3.53217e-20)
(1.33993 -0.0854843 1.91039e-20)
(1.34427 -0.0700425 0)
(1.34803 -0.0542718 0)
(1.35118 -0.0381907 1.8763e-20)
(1.35373 -0.0218185 0)
(1.35564 -0.00517433 -9.93365e-21)
(1.35691 0.0117191 2.43687e-21)
(1.35753 0.0288505 1.0177e-20)
(1.35749 0.0461796 -2.67966e-22)
(1.35677 0.0636713 2.02996e-20)
(1.35537 0.0813241 4.15457e-20)
(1.35329 0.0991231 2.06899e-20)
(1.3505 0.117052 -4.20597e-20)
(1.34702 0.135092 -4.058e-20)
(1.34284 0.153231 -7.78667e-20)
(1.33796 0.171453 7.71667e-20)
(1.33238 0.18975 0)
(1.32608 0.20811 -7.74756e-20)
(1.31908 0.226532 -1.87747e-21)
(1.31136 0.245006 2.22695e-21)
(1.30292 0.263541 -1.4395e-19)
(1.29376 0.282127 0)
(1.28385 0.300781 -7.1549e-20)
(1.27318 0.319499 0)
(1.26173 0.3383 0)
(1.24947 0.357187 1.27592e-19)
(1.23638 0.376177 -7.47256e-21)
(1.22242 0.395282 -1.25713e-19)
(1.20753 0.414513 1.27603e-19)
(1.19168 0.433887 -1.22291e-19)
(1.1748 0.453413 1.11979e-19)
(1.15681 0.473094 -1.1805e-19)
(1.1377 0.492987 -2.31517e-19)
(1.11714 0.512874 -2.23703e-19)
(1.09626 0.53378 -2.81605e-21)
(0.99829 -0.368833 0)