/*--------------------------------*- C++ -*----------------------------------*\
| =========                 |                                                 |
| \\      /  F ield         | OpenFOAM: The Open Source CFD Toolbox           |
|  \\    /   O peration     | Version:  2312                                  |
|   \\  /    A nd           | Website:  www.openfoam.com                      |
|    \\/     M anipulation  |                                                 |
\*---------------------------------------------------------------------------*/
FoamFile
{
    version     2.0;
    format      ascii;
    arch        "LSB;label=32;scalar=64";
    class       volScalarField;
    location    "400";
    object      nut;
}
// * * * * * * * * * * * * * * * * * * * * * * * * * * * * * * * * * * * * * //

dimensions      [0 2 -1 0 0 0 0];

internalField   nonuniform List<scalar> 
76025
(
6.49546e-06
6.49549e-06
6.49451e-06
6.49321e-06
6.49264e-06
6.49242e-06
6.49561e-06
6.49528e-06
6.49429e-06
6.49352e-06
6.49321e-06
6.49313e-06
6.4928e-06
6.49199e-06
6.49074e-06
6.48915e-06
6.48736e-06
6.4857e-06
6.48363e-06
6.48063e-06
6.47678e-06
6.47199e-06
6.46634e-06
6.46381e-06
6.46178e-06
6.46022e-06
6.45865e-06
6.45636e-06
6.45462e-06
6.45256e-06
6.45069e-06
6.44746e-06
6.44388e-06
6.43874e-06
6.4323e-06
6.42393e-06
6.41449e-06
6.4038e-06
6.39114e-06
6.37622e-06
6.35992e-06
6.34268e-06
6.3241e-06
6.30512e-06
6.28418e-06
6.26399e-06
6.24039e-06
6.21701e-06
6.19481e-06
6.17388e-06
6.15397e-06
6.13486e-06
6.11588e-06
6.09789e-06
6.07973e-06
6.05383e-06
6.02782e-06
5.9961e-06
5.95971e-06
5.91967e-06
5.87216e-06
5.81666e-06
5.75438e-06
5.68503e-06
5.60891e-06
5.51745e-06
5.41512e-06
5.31103e-06
5.18039e-06
6.46652e-06
6.46793e-06
6.46779e-06
6.46712e-06
6.46685e-06
6.46472e-06
6.4637e-06
6.46303e-06
6.46267e-06
6.46197e-06
6.46106e-06
6.46034e-06
6.45978e-06
6.45858e-06
6.45513e-06
6.45176e-06
6.44825e-06
6.44473e-06
6.44117e-06
6.43756e-06
6.43372e-06
6.42957e-06
6.42494e-06
6.42013e-06
6.41513e-06
6.40986e-06
6.40448e-06
6.39864e-06
6.39229e-06
6.38541e-06
6.37789e-06
6.36983e-06
6.36118e-06
6.35191e-06
6.34199e-06
6.33144e-06
6.32028e-06
6.30856e-06
6.29632e-06
6.28366e-06
6.27064e-06
6.25734e-06
6.24491e-06
6.23327e-06
6.22115e-06
6.20843e-06
6.19502e-06
6.18087e-06
6.16605e-06
6.15059e-06
6.13456e-06
6.11756e-06
6.09875e-06
6.07738e-06
6.0524e-06
6.02364e-06
5.99052e-06
5.95277e-06
5.90998e-06
5.86146e-06
5.80634e-06
5.74418e-06
5.67499e-06
5.59809e-06
5.50999e-06
5.41337e-06
5.30171e-06
5.17718e-06
5.03872e-06
6.43953e-06
6.44103e-06
6.44084e-06
6.44022e-06
6.43988e-06
6.43897e-06
6.43697e-06
6.43495e-06
6.43319e-06
6.43184e-06
6.43046e-06
6.42904e-06
6.42768e-06
6.42624e-06
6.42436e-06
6.4219e-06
6.41897e-06
6.41547e-06
6.41144e-06
6.40698e-06
6.40228e-06
6.39744e-06
6.39235e-06
6.38696e-06
6.38127e-06
6.37527e-06
6.36908e-06
6.36259e-06
6.35596e-06
6.3494e-06
6.34161e-06
6.33246e-06
6.32307e-06
6.31345e-06
6.30357e-06
6.29344e-06
6.2831e-06
6.27268e-06
6.26237e-06
6.25213e-06
6.24181e-06
6.23126e-06
6.2204e-06
6.20922e-06
6.19764e-06
6.18554e-06
6.17268e-06
6.15889e-06
6.14425e-06
6.12848e-06
6.11088e-06
6.09088e-06
6.06799e-06
6.04165e-06
6.01134e-06
5.97668e-06
5.93746e-06
5.89351e-06
5.84457e-06
5.79036e-06
5.73016e-06
5.66245e-06
5.5868e-06
5.50258e-06
5.40785e-06
5.29965e-06
5.17146e-06
5.03121e-06
4.87277e-06
6.42769e-06
6.42716e-06
6.42572e-06
6.42377e-06
6.42179e-06
6.42002e-06
6.41797e-06
6.41545e-06
6.41255e-06
6.40955e-06
6.40658e-06
6.40364e-06
6.40074e-06
6.39792e-06
6.39519e-06
6.39238e-06
6.3894e-06
6.38616e-06
6.38258e-06
6.37862e-06
6.37433e-06
6.36974e-06
6.36491e-06
6.35985e-06
6.35458e-06
6.34908e-06
6.34339e-06
6.33752e-06
6.33152e-06
6.32567e-06
6.31943e-06
6.31202e-06
6.30387e-06
6.29528e-06
6.28629e-06
6.27698e-06
6.26736e-06
6.25748e-06
6.24734e-06
6.23698e-06
6.22641e-06
6.21566e-06
6.20466e-06
6.19327e-06
6.18128e-06
6.16844e-06
6.15443e-06
6.13895e-06
6.12164e-06
6.10216e-06
6.0801e-06
6.05502e-06
6.02648e-06
5.9941e-06
5.95762e-06
5.91696e-06
5.87203e-06
5.82262e-06
5.76833e-06
5.7086e-06
5.64221e-06
5.56817e-06
5.48552e-06
5.39242e-06
5.2862e-06
5.1637e-06
5.01877e-06
4.85957e-06
4.69219e-06
6.42415e-06
6.42189e-06
6.41955e-06
6.41689e-06
6.41394e-06
6.41092e-06
6.40787e-06
6.40473e-06
6.40139e-06
6.39783e-06
6.39405e-06
6.39004e-06
6.38584e-06
6.38149e-06
6.37705e-06
6.37259e-06
6.36814e-06
6.36368e-06
6.35919e-06
6.35461e-06
6.34991e-06
6.34507e-06
6.34008e-06
6.33497e-06
6.32974e-06
6.32439e-06
6.31895e-06
6.31342e-06
6.30781e-06
6.30215e-06
6.29622e-06
6.28949e-06
6.28203e-06
6.27414e-06
6.26591e-06
6.25736e-06
6.24852e-06
6.23938e-06
6.2299e-06
6.22e-06
6.20959e-06
6.19853e-06
6.18669e-06
6.17388e-06
6.15988e-06
6.14442e-06
6.12717e-06
6.10783e-06
6.0861e-06
6.06166e-06
6.03418e-06
6.00338e-06
5.96904e-06
5.93108e-06
5.88947e-06
5.84411e-06
5.7947e-06
5.74077e-06
5.68171e-06
5.61668e-06
5.54439e-06
5.46331e-06
5.37166e-06
5.26696e-06
5.14618e-06
5.0059e-06
4.84188e-06
4.66317e-06
4.50173e-06
6.40759e-06
6.40802e-06
6.40758e-06
6.40624e-06
6.40411e-06
6.40144e-06
6.39842e-06
6.39516e-06
6.39172e-06
6.38809e-06
6.38426e-06
6.38019e-06
6.37589e-06
6.37135e-06
6.3666e-06
6.36165e-06
6.35654e-06
6.35131e-06
6.34599e-06
6.34061e-06
6.33518e-06
6.3297e-06
6.32417e-06
6.3186e-06
6.31298e-06
6.30731e-06
6.3016e-06
6.29582e-06
6.28995e-06
6.28395e-06
6.27773e-06
6.27111e-06
6.26396e-06
6.25638e-06
6.2484e-06
6.23999e-06
6.23107e-06
6.22156e-06
6.21136e-06
6.20033e-06
6.18832e-06
6.17518e-06
6.16072e-06
6.14474e-06
6.127e-06
6.10729e-06
6.08536e-06
6.06098e-06
6.03395e-06
6.00415e-06
5.97149e-06
5.93584e-06
5.89714e-06
5.85531e-06
5.81008e-06
5.76106e-06
5.7077e-06
5.64935e-06
5.58518e-06
5.51413e-06
5.43464e-06
5.34449e-06
5.24111e-06
5.12163e-06
4.98268e-06
4.82104e-06
4.63619e-06
4.44308e-06
4.32336e-06
6.37164e-06
6.37636e-06
6.37952e-06
6.38102e-06
6.38122e-06
6.38042e-06
6.37879e-06
6.37649e-06
6.37368e-06
6.37048e-06
6.36699e-06
6.36324e-06
6.35926e-06
6.35508e-06
6.35068e-06
6.34607e-06
6.34125e-06
6.33624e-06
6.33106e-06
6.32573e-06
6.32025e-06
6.31465e-06
6.30893e-06
6.30312e-06
6.2972e-06
6.2912e-06
6.28511e-06
6.27893e-06
6.27267e-06
6.26622e-06
6.25943e-06
6.25226e-06
6.24453e-06
6.23615e-06
6.2271e-06
6.21731e-06
6.20665e-06
6.19503e-06
6.18231e-06
6.16836e-06
6.15305e-06
6.13621e-06
6.11769e-06
6.09736e-06
6.07509e-06
6.05079e-06
6.02437e-06
5.99571e-06
5.96469e-06
5.93125e-06
5.89529e-06
5.85667e-06
5.81512e-06
5.77027e-06
5.7217e-06
5.66887e-06
5.61108e-06
5.54748e-06
5.47702e-06
5.39825e-06
5.30924e-06
5.2073e-06
5.0891e-06
4.95114e-06
4.79001e-06
4.60432e-06
4.40207e-06
4.2126e-06
4.21178e-06
6.3276e-06
6.33345e-06
6.33709e-06
6.33942e-06
6.34101e-06
6.34185e-06
6.3419e-06
6.34115e-06
6.33968e-06
6.33758e-06
6.33494e-06
6.33185e-06
6.32842e-06
6.32468e-06
6.3207e-06
6.31649e-06
6.31207e-06
6.30743e-06
6.30258e-06
6.29752e-06
6.29224e-06
6.28675e-06
6.28106e-06
6.27519e-06
6.26914e-06
6.2629e-06
6.25648e-06
6.24984e-06
6.24298e-06
6.23576e-06
6.22795e-06
6.21942e-06
6.21007e-06
6.1998e-06
6.18856e-06
6.17628e-06
6.16287e-06
6.14825e-06
6.13233e-06
6.11504e-06
6.0963e-06
6.07603e-06
6.05413e-06
6.03052e-06
6.00515e-06
5.97793e-06
5.9488e-06
5.91763e-06
5.88429e-06
5.84856e-06
5.81022e-06
5.76897e-06
5.72446e-06
5.67623e-06
5.62373e-06
5.56624e-06
5.50291e-06
5.43264e-06
5.35407e-06
5.26533e-06
5.16395e-06
5.04677e-06
4.90992e-06
4.74936e-06
4.56259e-06
4.35395e-06
4.14908e-06
4.00864e-06
4.28087e-06
6.28409e-06
6.28615e-06
6.28612e-06
6.28629e-06
6.28681e-06
6.28752e-06
6.28809e-06
6.28827e-06
6.2879e-06
6.28692e-06
6.28533e-06
6.28315e-06
6.28045e-06
6.27727e-06
6.27369e-06
6.26974e-06
6.26548e-06
6.26094e-06
6.25617e-06
6.25118e-06
6.24599e-06
6.24057e-06
6.23491e-06
6.22899e-06
6.22277e-06
6.21625e-06
6.20937e-06
6.20213e-06
6.19442e-06
6.18601e-06
6.17666e-06
6.16622e-06
6.15478e-06
6.14231e-06
6.12877e-06
6.11413e-06
6.09833e-06
6.08133e-06
6.06308e-06
6.04353e-06
6.02262e-06
6.00029e-06
5.97645e-06
5.95102e-06
5.92388e-06
5.89492e-06
5.86397e-06
5.83087e-06
5.79542e-06
5.75735e-06
5.71637e-06
5.67208e-06
5.62402e-06
5.5716e-06
5.51412e-06
5.4507e-06
5.38024e-06
5.30142e-06
5.21246e-06
5.11091e-06
4.99365e-06
4.85697e-06
4.69683e-06
4.50982e-06
4.29718e-06
4.07619e-06
3.90658e-06
3.91753e-06
4.78592e-06
6.24467e-06
6.24242e-06
6.23975e-06
6.23739e-06
6.2353e-06
6.23341e-06
6.2316e-06
6.22977e-06
6.22782e-06
6.22569e-06
6.22339e-06
6.22093e-06
6.21829e-06
6.21541e-06
6.21223e-06
6.20872e-06
6.20484e-06
6.2006e-06
6.19598e-06
6.191e-06
6.18566e-06
6.17995e-06
6.17385e-06
6.16735e-06
6.16045e-06
6.15318e-06
6.14555e-06
6.13772e-06
6.12921e-06
6.11938e-06
6.10834e-06
6.09622e-06
6.0831e-06
6.069e-06
6.0539e-06
6.03776e-06
6.02053e-06
6.00217e-06
5.9826e-06
5.96175e-06
5.93956e-06
5.91592e-06
5.89073e-06
5.86386e-06
5.83517e-06
5.8045e-06
5.77165e-06
5.73639e-06
5.69844e-06
5.65749e-06
5.61312e-06
5.56488e-06
5.51217e-06
5.45428e-06
5.39032e-06
5.3192e-06
5.23957e-06
5.14972e-06
5.04729e-06
4.92912e-06
4.79142e-06
4.63036e-06
4.44261e-06
4.22776e-06
3.99691e-06
3.79379e-06
3.74436e-06
4.14036e-06
6.37602e-06
6.20764e-06
6.20256e-06
6.1977e-06
6.19315e-06
6.18889e-06
6.18487e-06
6.18102e-06
6.17727e-06
6.17354e-06
6.16977e-06
6.1659e-06
6.16187e-06
6.15764e-06
6.15318e-06
6.14845e-06
6.14343e-06
6.1381e-06
6.13251e-06
6.1267e-06
6.12077e-06
6.11473e-06
6.10856e-06
6.10217e-06
6.09548e-06
6.08841e-06
6.08088e-06
6.07285e-06
6.06399e-06
6.05387e-06
6.04245e-06
6.03008e-06
6.01687e-06
6.00276e-06
5.98772e-06
5.97171e-06
5.95467e-06
5.93654e-06
5.91722e-06
5.89665e-06
5.87473e-06
5.85135e-06
5.8264e-06
5.79972e-06
5.77116e-06
5.74054e-06
5.70764e-06
5.67223e-06
5.63403e-06
5.59269e-06
5.54781e-06
5.49892e-06
5.44543e-06
5.38659e-06
5.32151e-06
5.24904e-06
5.1678e-06
5.0761e-06
4.97168e-06
4.85148e-06
4.71169e-06
4.54846e-06
4.35891e-06
4.14226e-06
3.90562e-06
3.68132e-06
3.56581e-06
3.82794e-06
5.15791e-06
1.07981e-05
6.17021e-06
6.16353e-06
6.15707e-06
6.15084e-06
6.14481e-06
6.13898e-06
6.13332e-06
6.12777e-06
6.12232e-06
6.11689e-06
6.11145e-06
6.10594e-06
6.10031e-06
6.09452e-06
6.08853e-06
6.08228e-06
6.07575e-06
6.0689e-06
6.0617e-06
6.05415e-06
6.04623e-06
6.03793e-06
6.02924e-06
6.02018e-06
6.01086e-06
6.00142e-06
5.9919e-06
5.98114e-06
5.96897e-06
5.95608e-06
5.94254e-06
5.92841e-06
5.91359e-06
5.89794e-06
5.88131e-06
5.8636e-06
5.84467e-06
5.82444e-06
5.80279e-06
5.77963e-06
5.75483e-06
5.72824e-06
5.69968e-06
5.66897e-06
5.63588e-06
5.60017e-06
5.56154e-06
5.51963e-06
5.47402e-06
5.42421e-06
5.36958e-06
5.30936e-06
5.24261e-06
5.16815e-06
5.08449e-06
4.98986e-06
4.88212e-06
4.75844e-06
4.61522e-06
4.44863e-06
4.25613e-06
4.03753e-06
3.79796e-06
3.56167e-06
3.40394e-06
3.53013e-06
4.56018e-06
8.38009e-06
2.24091e-05
6.12841e-06
6.12131e-06
6.11414e-06
6.10696e-06
6.0998e-06
6.09269e-06
6.08563e-06
6.07861e-06
6.07163e-06
6.06466e-06
6.05767e-06
6.05064e-06
6.04354e-06
6.03631e-06
6.02893e-06
6.02136e-06
6.01355e-06
6.00547e-06
5.99707e-06
5.98832e-06
5.97919e-06
5.96963e-06
5.95962e-06
5.94911e-06
5.93807e-06
5.92647e-06
5.91427e-06
5.90135e-06
5.88768e-06
5.87322e-06
5.85791e-06
5.84173e-06
5.82461e-06
5.8065e-06
5.78733e-06
5.76708e-06
5.74569e-06
5.72311e-06
5.69925e-06
5.67392e-06
5.6469e-06
5.61794e-06
5.58676e-06
5.55313e-06
5.51678e-06
5.47738e-06
5.43456e-06
5.38784e-06
5.33668e-06
5.28044e-06
5.21832e-06
5.14932e-06
5.07222e-06
4.98548e-06
4.88724e-06
4.77523e-06
4.64682e-06
4.49883e-06
4.32788e-06
4.13139e-06
3.91005e-06
3.66896e-06
3.42758e-06
3.24574e-06
3.28776e-06
4.03173e-06
7.12051e-06
1.79653e-05
4.75339e-05
6.07932e-06
6.07212e-06
6.06473e-06
6.05716e-06
6.04947e-06
6.04165e-06
6.03375e-06
6.02576e-06
6.01769e-06
6.00953e-06
6.00129e-06
5.99295e-06
5.98449e-06
5.97588e-06
5.96711e-06
5.95814e-06
5.94894e-06
5.93948e-06
5.92971e-06
5.91961e-06
5.90912e-06
5.89822e-06
5.88685e-06
5.87497e-06
5.86255e-06
5.84952e-06
5.83582e-06
5.82139e-06
5.80616e-06
5.79008e-06
5.77308e-06
5.75508e-06
5.73602e-06
5.7158e-06
5.69432e-06
5.67148e-06
5.64717e-06
5.62124e-06
5.59358e-06
5.56402e-06
5.53238e-06
5.49851e-06
5.46225e-06
5.42344e-06
5.38178e-06
5.33677e-06
5.2878e-06
5.23423e-06
5.17537e-06
5.11037e-06
5.03815e-06
4.95738e-06
4.86644e-06
4.76338e-06
4.64588e-06
4.51139e-06
4.35732e-06
4.18094e-06
3.98034e-06
3.7561e-06
3.51408e-06
3.27208e-06
3.08127e-06
3.07645e-06
3.64219e-06
6.11137e-06
1.53197e-05
4.18751e-05
8.61658e-05
6.01674e-06
6.00995e-06
6.00285e-06
5.99545e-06
5.98779e-06
5.97987e-06
5.97172e-06
5.96334e-06
5.95474e-06
5.94593e-06
5.93691e-06
5.92767e-06
5.91822e-06
5.90854e-06
5.89861e-06
5.88842e-06
5.87793e-06
5.86714e-06
5.85599e-06
5.84447e-06
5.83254e-06
5.82014e-06
5.80724e-06
5.7938e-06
5.77976e-06
5.76506e-06
5.74963e-06
5.73339e-06
5.71627e-06
5.69821e-06
5.67911e-06
5.6589e-06
5.63747e-06
5.61473e-06
5.59054e-06
5.56478e-06
5.5373e-06
5.50793e-06
5.47647e-06
5.44272e-06
5.40644e-06
5.36733e-06
5.32509e-06
5.27936e-06
5.22974e-06
5.17581e-06
5.11713e-06
5.05325e-06
4.98339e-06
4.90628e-06
4.8203e-06
4.72357e-06
4.61399e-06
4.48923e-06
4.34679e-06
4.18456e-06
4.00158e-06
3.7967e-06
3.5701e-06
3.32872e-06
3.09054e-06
2.90284e-06
2.88434e-06
3.36253e-06
5.46402e-06
1.3378e-05
3.78412e-05
8.16296e-05
0.000126476
5.9365e-06
5.93019e-06
5.92352e-06
5.9165e-06
5.90913e-06
5.90142e-06
5.89337e-06
5.88498e-06
5.87626e-06
5.86721e-06
5.85783e-06
5.84812e-06
5.83806e-06
5.82766e-06
5.81689e-06
5.80576e-06
5.79423e-06
5.78228e-06
5.76989e-06
5.75702e-06
5.74365e-06
5.72973e-06
5.71522e-06
5.70006e-06
5.68421e-06
5.66759e-06
5.65011e-06
5.6317e-06
5.61227e-06
5.59176e-06
5.57004e-06
5.54703e-06
5.52261e-06
5.49663e-06
5.46896e-06
5.43944e-06
5.40787e-06
5.37406e-06
5.33776e-06
5.29871e-06
5.25661e-06
5.21111e-06
5.16181e-06
5.10825e-06
5.0499e-06
4.98614e-06
4.91624e-06
4.83931e-06
4.7543e-06
4.65989e-06
4.55434e-06
4.43552e-06
4.30108e-06
4.14898e-06
3.97759e-06
3.78646e-06
3.57716e-06
3.34882e-06
3.10954e-06
2.87994e-06
2.70777e-06
2.70704e-06
3.17962e-06
5.15558e-06
1.24361e-05
3.53395e-05
7.84618e-05
0.000123962
0.000154246
5.83721e-06
5.83093e-06
5.82431e-06
5.81735e-06
5.81003e-06
5.80235e-06
5.79429e-06
5.78585e-06
5.77701e-06
5.76777e-06
5.75811e-06
5.74802e-06
5.73749e-06
5.72651e-06
5.71505e-06
5.7031e-06
5.69064e-06
5.67764e-06
5.66407e-06
5.6499e-06
5.63508e-06
5.61958e-06
5.60335e-06
5.58633e-06
5.56845e-06
5.54963e-06
5.52977e-06
5.50879e-06
5.48661e-06
5.46312e-06
5.43821e-06
5.41175e-06
5.38359e-06
5.35359e-06
5.32156e-06
5.2873e-06
5.25059e-06
5.21117e-06
5.16876e-06
5.12303e-06
5.0736e-06
5.02005e-06
4.96187e-06
4.8985e-06
4.82927e-06
4.75336e-06
4.66978e-06
4.5773e-06
4.47439e-06
4.35925e-06
4.22977e-06
4.08403e-06
3.9199e-06
3.7373e-06
3.53817e-06
3.32206e-06
3.09128e-06
2.85661e-06
2.6419e-06
2.50087e-06
2.55124e-06
3.11038e-06
5.22839e-06
1.26768e-05
3.53178e-05
7.78126e-05
0.000123255
0.000152224
0.000160145
5.71806e-06
5.71119e-06
5.70401e-06
5.69651e-06
5.68868e-06
5.6805e-06
5.67195e-06
5.663e-06
5.65364e-06
5.64383e-06
5.63357e-06
5.62282e-06
5.61156e-06
5.59977e-06
5.58741e-06
5.57446e-06
5.56089e-06
5.54665e-06
5.53171e-06
5.51603e-06
5.49956e-06
5.48224e-06
5.46401e-06
5.44481e-06
5.42455e-06
5.40313e-06
5.38047e-06
5.35646e-06
5.33099e-06
5.30394e-06
5.27517e-06
5.24453e-06
5.21184e-06
5.1769e-06
5.13951e-06
5.09941e-06
5.05633e-06
5.00995e-06
4.95992e-06
4.90583e-06
4.84721e-06
4.78353e-06
4.71415e-06
4.63832e-06
4.55512e-06
4.46338e-06
4.36167e-06
4.24827e-06
4.12126e-06
3.97892e-06
3.81943e-06
3.64299e-06
3.44918e-06
3.24366e-06
3.02318e-06
2.79517e-06
2.57252e-06
2.38651e-06
2.29882e-06
2.44983e-06
3.21463e-06
5.83392e-06
1.45224e-05
3.87074e-05
8.1043e-05
0.000125545
0.000153136
0.000156425
0.000151247
5.57565e-06
5.56773e-06
5.5595e-06
5.55096e-06
5.54208e-06
5.53285e-06
5.52324e-06
5.51323e-06
5.50277e-06
5.49186e-06
5.48044e-06
5.4685e-06
5.45599e-06
5.44289e-06
5.42914e-06
5.41471e-06
5.39956e-06
5.38363e-06
5.36686e-06
5.34921e-06
5.33061e-06
5.31098e-06
5.29026e-06
5.26835e-06
5.24514e-06
5.22053e-06
5.1944e-06
5.16665e-06
5.13712e-06
5.10567e-06
5.07213e-06
5.0363e-06
4.99796e-06
4.95689e-06
4.9128e-06
4.86539e-06
4.8143e-06
4.75916e-06
4.6995e-06
4.6348e-06
4.56446e-06
4.48775e-06
4.40377e-06
4.31141e-06
4.20931e-06
4.09579e-06
3.96916e-06
3.82776e-06
3.67036e-06
3.49742e-06
3.30898e-06
3.11132e-06
2.90065e-06
2.68197e-06
2.46478e-06
2.27074e-06
2.13556e-06
2.14128e-06
2.46654e-06
3.6418e-06
7.37509e-06
1.88736e-05
4.66509e-05
8.91978e-05
0.000131484
0.000156847
0.000156734
0.000144906
0.000142712
5.40135e-06
5.39221e-06
5.38272e-06
5.37286e-06
5.36262e-06
5.35198e-06
5.34091e-06
5.32938e-06
5.31736e-06
5.30483e-06
5.29173e-06
5.27804e-06
5.26371e-06
5.2487e-06
5.23295e-06
5.21642e-06
5.19903e-06
5.18074e-06
5.16147e-06
5.14114e-06
5.11967e-06
5.09697e-06
5.07295e-06
5.04749e-06
5.02048e-06
4.9918e-06
4.96129e-06
4.92881e-06
4.89416e-06
4.85716e-06
4.81757e-06
4.77516e-06
4.72964e-06
4.68072e-06
4.62804e-06
4.57122e-06
4.50982e-06
4.44332e-06
4.37112e-06
4.29248e-06
4.20651e-06
4.11214e-06
4.00796e-06
3.89246e-06
3.76423e-06
3.62166e-06
3.46462e-06
3.29382e-06
3.10964e-06
2.91926e-06
2.71833e-06
2.51203e-06
2.30802e-06
2.12217e-06
1.98147e-06
1.9406e-06
2.09715e-06
2.74905e-06
4.72062e-06
1.06856e-05
2.71957e-05
6.00501e-05
0.00010248
0.000140887
0.000162285
0.000159756
0.000145191
0.000135721
0.000133197
5.18028e-06
5.16985e-06
5.15899e-06
5.14769e-06
5.13591e-06
5.12365e-06
5.11088e-06
5.09756e-06
5.08365e-06
5.06913e-06
5.05395e-06
5.03806e-06
5.02141e-06
5.00396e-06
4.98564e-06
4.96638e-06
4.94611e-06
4.92475e-06
4.90223e-06
4.87843e-06
4.85326e-06
4.8266e-06
4.79834e-06
4.76831e-06
4.73637e-06
4.70236e-06
4.66608e-06
4.62735e-06
4.58593e-06
4.54158e-06
4.49402e-06
4.44294e-06
4.38799e-06
4.32879e-06
4.26487e-06
4.19572e-06
4.1207e-06
4.03906e-06
3.94985e-06
3.85193e-06
3.74406e-06
3.62501e-06
3.4933e-06
3.34825e-06
3.19076e-06
3.02134e-06
2.84448e-06
2.66264e-06
2.47408e-06
2.28292e-06
2.0981e-06
1.93371e-06
1.81076e-06
1.76939e-06
1.87688e-06
2.32776e-06
3.58915e-06
7.14889e-06
1.72212e-05
4.08211e-05
7.833e-05
0.000119291
0.000152179
0.000167695
0.000163185
0.000149271
0.000135778
0.000126177
0.000121649
4.89021e-06
4.87825e-06
4.86578e-06
4.85276e-06
4.83919e-06
4.82501e-06
4.81021e-06
4.79473e-06
4.77855e-06
4.76161e-06
4.74387e-06
4.72527e-06
4.70574e-06
4.68523e-06
4.66365e-06
4.64093e-06
4.61698e-06
4.59169e-06
4.56496e-06
4.53666e-06
4.50666e-06
4.47483e-06
4.44104e-06
4.40513e-06
4.36689e-06
4.32611e-06
4.28254e-06
4.23593e-06
4.18597e-06
4.13233e-06
4.07464e-06
4.01249e-06
3.9454e-06
3.87281e-06
3.79408e-06
3.70837e-06
3.61471e-06
3.51205e-06
3.39922e-06
3.27534e-06
3.13973e-06
2.99332e-06
2.83673e-06
2.67145e-06
2.50678e-06
2.33676e-06
2.1661e-06
1.9987e-06
1.84318e-06
1.71043e-06
1.62367e-06
1.61302e-06
1.73595e-06
2.12767e-06
3.10696e-06
5.5766e-06
1.21191e-05
2.83638e-05
5.89228e-05
9.82732e-05
0.000135516
0.000161723
0.000171532
0.000167772
0.000154973
0.000139898
0.000128101
0.000117261
0.00010917
4.49896e-06
4.48506e-06
4.47056e-06
4.45543e-06
4.43962e-06
4.42311e-06
4.40584e-06
4.38777e-06
4.36884e-06
4.34901e-06
4.3282e-06
4.30634e-06
4.28337e-06
4.2592e-06
4.23373e-06
4.20687e-06
4.17849e-06
4.14849e-06
4.11672e-06
4.08302e-06
4.04724e-06
4.00924e-06
3.96877e-06
3.92561e-06
3.87952e-06
3.83021e-06
3.77741e-06
3.72075e-06
3.65988e-06
3.59434e-06
3.52362e-06
3.44712e-06
3.36414e-06
3.27385e-06
3.17542e-06
3.06779e-06
2.95035e-06
2.82324e-06
2.68759e-06
2.54409e-06
2.39385e-06
2.24741e-06
2.09842e-06
1.95093e-06
1.8081e-06
1.67582e-06
1.56238e-06
1.4808e-06
1.44691e-06
1.48166e-06
1.66039e-06
2.08008e-06
2.98774e-06
4.99123e-06
9.65909e-06
2.06313e-05
4.30839e-05
7.69858e-05
0.00011398
0.000144919
0.000164519
0.000171951
0.000170342
0.000159794
0.000144271
0.000134227
0.000123522
0.000111314
9.90459e-05
3.95717e-06
3.94081e-06
3.92377e-06
3.90599e-06
3.88743e-06
3.86803e-06
3.84775e-06
3.82652e-06
3.80429e-06
3.78099e-06
3.75652e-06
3.73083e-06
3.7038e-06
3.67534e-06
3.64533e-06
3.61366e-06
3.58019e-06
3.54476e-06
3.50721e-06
3.46735e-06
3.42511e-06
3.38021e-06
3.33241e-06
3.28143e-06
3.22693e-06
3.16853e-06
3.10579e-06
3.03822e-06
2.96528e-06
2.88634e-06
2.80077e-06
2.70795e-06
2.60721e-06
2.49823e-06
2.38182e-06
2.25904e-06
2.13129e-06
2.0047e-06
1.88215e-06
1.76116e-06
1.64361e-06
1.53252e-06
1.43246e-06
1.35242e-06
1.29985e-06
1.28222e-06
1.3182e-06
1.44177e-06
1.70224e-06
2.19808e-06
3.14309e-06
4.98521e-06
8.67146e-06
1.61913e-05
3.10063e-05
5.58569e-05
8.75203e-05
0.000117949
0.00014166
0.000157597
0.000166488
0.0001679
0.000161495
0.000149475
0.000140598
0.000133137
0.000123845
0.000111281
9.53621e-05
3.19976e-06
3.18119e-06
3.16188e-06
3.14177e-06
3.12081e-06
3.09894e-06
3.07611e-06
3.05227e-06
3.02733e-06
3.00122e-06
2.97387e-06
2.94519e-06
2.91507e-06
2.8834e-06
2.85008e-06
2.81496e-06
2.77792e-06
2.73879e-06
2.69738e-06
2.6535e-06
2.60677e-06
2.55689e-06
2.50353e-06
2.44634e-06
2.38493e-06
2.31894e-06
2.24799e-06
2.17177e-06
2.09005e-06
2.00275e-06
1.91008e-06
1.81304e-06
1.71291e-06
1.6116e-06
1.51861e-06
1.42897e-06
1.34451e-06
1.26619e-06
1.19951e-06
1.14797e-06
1.115e-06
1.09883e-06
1.11426e-06
1.18502e-06
1.31772e-06
1.5383e-06
1.89807e-06
2.49364e-06
3.50384e-06
5.24737e-06
8.30322e-06
1.35626e-05
2.23187e-05
3.64791e-05
5.72989e-05
8.15399e-05
0.000104226
0.000124009
0.000140147
0.0001513
0.000156388
0.000154764
0.000147545
0.000140186
0.000137762
0.000133726
0.000126802
0.000115672
9.89975e-05
2.17744e-06
2.15908e-06
2.14006e-06
2.12034e-06
2.09986e-06
2.07858e-06
2.05646e-06
2.03344e-06
2.00947e-06
1.98448e-06
1.95843e-06
1.93122e-06
1.90279e-06
1.87306e-06
1.84192e-06
1.80929e-06
1.77506e-06
1.73904e-06
1.70069e-06
1.65983e-06
1.61633e-06
1.5701e-06
1.52113e-06
1.46946e-06
1.41522e-06
1.35866e-06
1.30016e-06
1.2403e-06
1.17986e-06
1.1198e-06
1.06162e-06
1.01312e-06
9.72912e-07
9.40583e-07
9.11739e-07
8.93985e-07
8.89164e-07
9.01087e-07
9.48146e-07
1.02473e-06
1.13687e-06
1.29312e-06
1.50685e-06
1.80044e-06
2.21361e-06
2.81727e-06
3.74321e-06
5.21931e-06
7.57703e-06
1.09416e-05
1.52763e-05
2.06575e-05
2.738e-05
3.72692e-05
5.27954e-05
7.25639e-05
9.20391e-05
0.000109024
0.00012217
0.00013052
0.000133224
0.000129481
0.000124942
0.00012909
0.000131611
0.000130432
0.000125343
0.000115211
9.82115e-05
1.03806e-06
1.02716e-06
1.01594e-06
1.00439e-06
9.92502e-07
9.80261e-07
9.67642e-07
9.54623e-07
9.41181e-07
9.2729e-07
9.12926e-07
8.98065e-07
8.82694e-07
8.66805e-07
8.50388e-07
8.3343e-07
8.15932e-07
7.98021e-07
7.80059e-07
7.6225e-07
7.44817e-07
7.2802e-07
7.1216e-07
6.97592e-07
6.84733e-07
6.74061e-07
6.66133e-07
6.61796e-07
6.61818e-07
6.6695e-07
6.77702e-07
7.10833e-07
7.56514e-07
8.15565e-07
8.89051e-07
9.77899e-07
1.08342e-06
1.20686e-06
1.34979e-06
1.51249e-06
1.69606e-06
1.9073e-06
2.16937e-06
2.54056e-06
3.11909e-06
3.93731e-06
4.99083e-06
6.48913e-06
8.29094e-06
8.33254e-06
6.98052e-06
6.38392e-06
7.88052e-06
1.30723e-05
2.39276e-05
4.15299e-05
5.79937e-05
7.14104e-05
8.03153e-05
8.38631e-05
8.60798e-05
8.79941e-05
9.22394e-05
0.000104287
0.000111021
0.000111583
0.000107086
9.7028e-05
7.96297e-05
3.81832e-07
3.88648e-07
3.95538e-07
4.02442e-07
4.0934e-07
4.16229e-07
4.23109e-07
4.29983e-07
4.36858e-07
4.43741e-07
4.50647e-07
4.57635e-07
4.65422e-07
4.74219e-07
4.84245e-07
4.95693e-07
5.0874e-07
5.23551e-07
5.40308e-07
5.59211e-07
5.80476e-07
6.04333e-07
6.31013e-07
6.60734e-07
6.93679e-07
7.2996e-07
7.69567e-07
8.12305e-07
8.57716e-07
9.04974e-07
9.52775e-07
9.99487e-07
1.04264e-06
1.07922e-06
1.10604e-06
1.12017e-06
1.12007e-06
1.10663e-06
1.08106e-06
1.04157e-06
1.00625e-06
9.92896e-07
1.0392e-06
1.24778e-06
1.67291e-06
1.71959e-06
1.30685e-06
9.48429e-07
7.50451e-07
6.81976e-07
5.137e-07
5.20072e-07
7.89335e-07
1.48617e-06
2.98558e-06
5.78855e-06
9.91645e-06
1.50436e-05
2.0329e-05
2.46685e-05
2.83521e-05
3.1923e-05
3.60183e-05
4.14853e-05
4.41069e-05
4.29173e-05
3.79536e-05
2.9409e-05
1.85959e-05
3.55524e-07
3.65029e-07
3.74602e-07
3.84224e-07
3.93845e-07
4.03418e-07
4.12893e-07
4.22219e-07
4.31339e-07
4.40187e-07
4.48686e-07
4.5669e-07
4.63352e-07
4.68497e-07
4.72005e-07
4.73809e-07
4.73862e-07
4.72097e-07
4.68419e-07
4.62713e-07
4.54838e-07
4.44632e-07
4.31925e-07
4.16545e-07
3.98335e-07
3.77177e-07
3.53016e-07
3.25898e-07
2.96002e-07
2.63686e-07
2.29515e-07
1.94288e-07
1.59031e-07
1.24974e-07
9.34816e-08
6.59577e-08
4.36509e-08
2.71713e-08
1.67833e-08
1.19438e-08
1.03761e-08
9.55012e-09
9.14771e-09
1.51409e-08
3.68659e-08
5.50787e-08
4.54577e-08
3.44333e-08
2.77341e-08
2.36676e-08
1.92413e-08
2.03906e-08
2.92191e-08
4.5324e-08
6.80623e-08
8.983e-08
9.4374e-08
8.10926e-08
1.23717e-07
1.80713e-07
2.47164e-07
3.11298e-07
3.73932e-07
4.4707e-07
4.71027e-07
4.25982e-07
3.25023e-07
1.99927e-07
9.60213e-08
6.35903e-06
6.35845e-06
6.35725e-06
6.35549e-06
6.35386e-06
6.35424e-06
6.35769e-06
6.36311e-06
6.36775e-06
6.36794e-06
6.36742e-06
6.36638e-06
6.36183e-06
6.36032e-06
6.361e-06
6.36094e-06
6.35697e-06
6.36141e-06
6.36285e-06
6.37517e-06
6.38405e-06
6.37503e-06
6.37118e-06
6.36624e-06
6.36224e-06
6.34774e-06
6.35665e-06
6.37419e-06
6.38215e-06
6.37877e-06
6.4064e-06
6.41279e-06
6.42291e-06
6.42918e-06
6.42847e-06
6.42413e-06
6.4286e-06
6.43029e-06
6.43324e-06
6.43391e-06
6.43464e-06
6.44212e-06
6.44563e-06
6.44575e-06
6.44711e-06
6.44757e-06
6.45543e-06
6.46665e-06
6.47345e-06
6.47372e-06
6.47346e-06
6.47342e-06
6.47589e-06
6.48049e-06
6.48577e-06
6.49025e-06
6.49301e-06
6.49424e-06
6.49467e-06
6.337e-06
6.33689e-06
6.33724e-06
6.33814e-06
6.3405e-06
6.34459e-06
6.35025e-06
6.35391e-06
6.35255e-06
6.35248e-06
6.35191e-06
6.34991e-06
6.34795e-06
6.34974e-06
6.35337e-06
6.34691e-06
6.34654e-06
6.34955e-06
6.35495e-06
6.37006e-06
6.3725e-06
6.36317e-06
6.35973e-06
6.3597e-06
6.35104e-06
6.33742e-06
6.34515e-06
6.366e-06
6.37929e-06
6.37638e-06
6.39808e-06
6.41157e-06
6.4206e-06
6.42841e-06
6.4307e-06
6.42739e-06
6.42874e-06
6.43072e-06
6.43126e-06
6.43239e-06
6.43125e-06
6.43168e-06
6.43178e-06
6.43411e-06
6.43934e-06
6.44183e-06
6.4458e-06
6.45307e-06
6.46033e-06
6.4639e-06
6.4651e-06
6.46293e-06
6.45905e-06
6.45705e-06
6.45696e-06
6.45821e-06
6.45998e-06
6.4615e-06
6.46231e-06
6.31716e-06
6.31867e-06
6.32113e-06
6.32447e-06
6.32892e-06
6.33422e-06
6.33779e-06
6.33689e-06
6.33618e-06
6.33621e-06
6.33571e-06
6.3352e-06
6.33747e-06
6.34205e-06
6.33892e-06
6.33285e-06
6.33435e-06
6.33892e-06
6.35141e-06
6.36696e-06
6.36491e-06
6.35051e-06
6.34943e-06
6.35514e-06
6.33947e-06
6.32645e-06
6.33291e-06
6.35854e-06
6.3764e-06
6.37608e-06
6.39152e-06
6.40851e-06
6.41817e-06
6.42641e-06
6.43111e-06
6.43009e-06
6.42979e-06
6.43116e-06
6.43095e-06
6.43117e-06
6.43042e-06
6.42871e-06
6.42629e-06
6.42495e-06
6.4285e-06
6.43289e-06
6.43697e-06
6.44226e-06
6.44874e-06
6.45425e-06
6.45784e-06
6.45861e-06
6.45665e-06
6.45312e-06
6.44704e-06
6.44227e-06
6.43926e-06
6.43742e-06
6.43599e-06
6.29907e-06
6.30195e-06
6.30554e-06
6.30945e-06
6.31341e-06
6.31678e-06
6.31851e-06
6.31851e-06
6.31867e-06
6.31897e-06
6.31918e-06
6.32037e-06
6.32361e-06
6.32539e-06
6.32109e-06
6.31815e-06
6.32116e-06
6.32855e-06
6.34537e-06
6.36164e-06
6.3526e-06
6.33666e-06
6.33772e-06
6.34868e-06
6.32689e-06
6.31437e-06
6.31961e-06
6.34437e-06
6.37122e-06
6.37547e-06
6.38588e-06
6.40344e-06
6.4145e-06
6.42293e-06
6.42927e-06
6.43089e-06
6.43062e-06
6.43125e-06
6.43084e-06
6.42992e-06
6.42894e-06
6.42721e-06
6.4244e-06
6.42022e-06
6.41779e-06
6.41897e-06
6.42206e-06
6.42655e-06
6.4327e-06
6.43948e-06
6.44549e-06
6.44982e-06
6.45193e-06
6.4517e-06
6.44901e-06
6.44455e-06
6.43854e-06
6.43141e-06
6.42809e-06
6.28097e-06
6.28428e-06
6.28797e-06
6.29149e-06
6.2946e-06
6.29698e-06
6.29839e-06
6.29913e-06
6.29983e-06
6.30054e-06
6.30154e-06
6.30339e-06
6.3056e-06
6.30559e-06
6.30289e-06
6.30266e-06
6.30741e-06
6.31723e-06
6.33411e-06
6.34701e-06
6.33485e-06
6.32176e-06
6.32459e-06
6.33472e-06
6.31299e-06
6.30094e-06
6.30498e-06
6.32713e-06
6.35909e-06
6.37238e-06
6.37981e-06
6.39684e-06
6.40983e-06
6.41874e-06
6.4259e-06
6.42978e-06
6.43071e-06
6.43105e-06
6.43047e-06
6.42868e-06
6.42681e-06
6.42506e-06
6.42269e-06
6.4178e-06
6.41043e-06
6.40486e-06
6.40285e-06
6.40338e-06
6.40636e-06
6.4121e-06
6.41924e-06
6.4264e-06
6.4325e-06
6.43687e-06
6.43911e-06
6.43896e-06
6.43654e-06
6.43049e-06
6.4263e-06
6.26112e-06
6.26427e-06
6.26768e-06
6.27077e-06
6.27343e-06
6.27554e-06
6.2771e-06
6.27829e-06
6.27938e-06
6.28056e-06
6.28206e-06
6.28391e-06
6.28525e-06
6.28496e-06
6.28415e-06
6.2862e-06
6.2927e-06
6.30404e-06
6.31915e-06
6.32665e-06
6.31538e-06
6.30555e-06
6.30956e-06
6.31731e-06
6.29754e-06
6.28594e-06
6.2888e-06
6.30818e-06
6.33833e-06
6.35965e-06
6.36623e-06
6.38375e-06
6.40094e-06
6.41213e-06
6.4203e-06
6.42626e-06
6.42945e-06
6.43079e-06
6.43059e-06
6.42861e-06
6.4258e-06
6.42301e-06
6.41978e-06
6.41392e-06
6.40398e-06
6.39373e-06
6.38685e-06
6.3829e-06
6.38122e-06
6.38167e-06
6.38405e-06
6.38796e-06
6.3932e-06
6.39897e-06
6.40405e-06
6.40757e-06
6.40928e-06
6.40682e-06
6.40639e-06
6.23852e-06
6.24155e-06
6.24476e-06
6.24765e-06
6.25018e-06
6.2523e-06
6.25405e-06
6.25556e-06
6.257e-06
6.25854e-06
6.26028e-06
6.26195e-06
6.26302e-06
6.26337e-06
6.26444e-06
6.26844e-06
6.27642e-06
6.28825e-06
6.3008e-06
6.30436e-06
6.29456e-06
6.28765e-06
6.29231e-06
6.29788e-06
6.28026e-06
6.26914e-06
6.27085e-06
6.28752e-06
6.31478e-06
6.3374e-06
6.34635e-06
6.36086e-06
6.37916e-06
6.39383e-06
6.40434e-06
6.41312e-06
6.42e-06
6.42468e-06
6.42717e-06
6.42703e-06
6.42434e-06
6.41978e-06
6.41368e-06
6.40531e-06
6.39397e-06
6.38229e-06
6.37267e-06
6.36547e-06
6.36032e-06
6.35686e-06
6.35488e-06
6.35429e-06
6.35501e-06
6.35675e-06
6.35903e-06
6.36126e-06
6.36299e-06
6.36346e-06
6.36641e-06
6.21305e-06
6.21612e-06
6.21926e-06
6.22209e-06
6.22461e-06
6.2268e-06
6.22872e-06
6.23048e-06
6.23222e-06
6.23404e-06
6.23591e-06
6.23762e-06
6.23901e-06
6.24047e-06
6.2433e-06
6.24893e-06
6.25791e-06
6.26936e-06
6.27923e-06
6.28025e-06
6.27209e-06
6.26767e-06
6.27259e-06
6.27646e-06
6.26087e-06
6.25024e-06
6.25087e-06
6.26493e-06
6.28919e-06
6.31171e-06