/*--------------------------------*- C++ -*----------------------------------*\
| =========                 |                                                 |
| \\      /  F ield         | OpenFOAM: The Open Source CFD Toolbox           |
|  \\    /   O peration     | Version:  2312                                  |
|   \\  /    A nd           | Website:  www.openfoam.com                      |
|    \\/     M anipulation  |                                                 |
\*---------------------------------------------------------------------------*/
FoamFile
{
    version     2.0;
    format      ascii;
    arch        "LSB;label=32;scalar=64";
    class       volScalarField;
    location    "400";
    object      nuTilda;
}
// * * * * * * * * * * * * * * * * * * * * * * * * * * * * * * * * * * * * * //

dimensions      [0 2 -1 0 0 0 0];

internalField   nonuniform List<scalar> 
76025
(
4.07788e-05
4.07788e-05
4.07771e-05
4.07748e-05
4.07737e-05
4.07733e-05
4.0779e-05
4.07785e-05
4.07767e-05
4.07753e-05
4.07748e-05
4.07746e-05
4.0774e-05
4.07726e-05
4.07704e-05
4.07675e-05
4.07643e-05
4.07614e-05
4.07577e-05
4.07523e-05
4.07454e-05
4.07369e-05
4.07268e-05
4.07223e-05
4.07186e-05
4.07159e-05
4.0713e-05
4.07089e-05
4.07058e-05
4.07021e-05
4.06988e-05
4.0693e-05
4.06866e-05
4.06774e-05
4.06658e-05
4.06508e-05
4.06339e-05
4.06147e-05
4.05919e-05
4.0565e-05
4.05356e-05
4.05044e-05
4.04708e-05
4.04364e-05
4.03983e-05
4.03615e-05
4.03185e-05
4.02757e-05
4.0235e-05
4.01965e-05
4.01599e-05
4.01246e-05
4.00895e-05
4.00562e-05
4.00225e-05
3.99743e-05
3.99258e-05
3.98665e-05
3.97982e-05
3.97227e-05
3.96328e-05
3.95271e-05
3.94078e-05
3.92739e-05
3.91258e-05
3.89462e-05
3.87429e-05
3.85336e-05
3.82673e-05
4.07271e-05
4.07296e-05
4.07294e-05
4.07282e-05
4.07277e-05
4.07239e-05
4.07221e-05
4.07209e-05
4.07202e-05
4.0719e-05
4.07173e-05
4.07161e-05
4.07151e-05
4.07129e-05
4.07067e-05
4.07007e-05
4.06944e-05
4.06881e-05
4.06817e-05
4.06753e-05
4.06684e-05
4.0661e-05
4.06526e-05
4.0644e-05
4.0635e-05
4.06256e-05
4.06159e-05
4.06054e-05
4.0594e-05
4.05816e-05
4.0568e-05
4.05535e-05
4.05379e-05
4.05211e-05
4.05032e-05
4.04841e-05
4.04639e-05
4.04426e-05
4.04204e-05
4.03974e-05
4.03737e-05
4.03494e-05
4.03267e-05
4.03054e-05
4.02833e-05
4.026e-05
4.02354e-05
4.02094e-05
4.01821e-05
4.01536e-05
4.0124e-05
4.00926e-05
4.00578e-05
4.00181e-05
3.99717e-05
3.9918e-05
3.9856e-05
3.97851e-05
3.97044e-05
3.96124e-05
3.95074e-05
3.93881e-05
3.92544e-05
3.91047e-05
3.89314e-05
3.87394e-05
3.85148e-05
3.82606e-05
3.79735e-05
4.06788e-05
4.06815e-05
4.06812e-05
4.068e-05
4.06794e-05
4.06778e-05
4.06742e-05
4.06706e-05
4.06674e-05
4.0665e-05
4.06626e-05
4.066e-05
4.06576e-05
4.0655e-05
4.06516e-05
4.06472e-05
4.06419e-05
4.06356e-05
4.06284e-05
4.06204e-05
4.06119e-05
4.06032e-05
4.05941e-05
4.05844e-05
4.05741e-05
4.05633e-05
4.05521e-05
4.05404e-05
4.05284e-05
4.05166e-05
4.05025e-05
4.04859e-05
4.04689e-05
4.04515e-05
4.04336e-05
4.04152e-05
4.03963e-05
4.03774e-05
4.03586e-05
4.03399e-05
4.03211e-05
4.03018e-05
4.02819e-05
4.02614e-05
4.02402e-05
4.0218e-05
4.01943e-05
4.01689e-05
4.01419e-05
4.01128e-05
4.00802e-05
4.00432e-05
4.00007e-05
3.99516e-05
3.9895e-05
3.98301e-05
3.97563e-05
3.96732e-05
3.95803e-05
3.94768e-05
3.93611e-05
3.92301e-05
3.90825e-05
3.89168e-05
3.87284e-05
3.85106e-05
3.82489e-05
3.79578e-05
3.76225e-05
4.06576e-05
4.06566e-05
4.0654e-05
4.06505e-05
4.0647e-05
4.06438e-05
4.06401e-05
4.06356e-05
4.06304e-05
4.0625e-05
4.06197e-05
4.06144e-05
4.06092e-05
4.06041e-05
4.05992e-05
4.05941e-05
4.05888e-05
4.05829e-05
4.05765e-05
4.05693e-05
4.05616e-05
4.05533e-05
4.05446e-05
4.05355e-05
4.05259e-05
4.0516e-05
4.05057e-05
4.04951e-05
4.04842e-05
4.04736e-05
4.04623e-05
4.04489e-05
4.04341e-05
4.04185e-05
4.04022e-05
4.03852e-05
4.03677e-05
4.03497e-05
4.03312e-05
4.03122e-05
4.02929e-05
4.02732e-05
4.02531e-05
4.02322e-05
4.02101e-05
4.01865e-05
4.01607e-05
4.01321e-05
4.01002e-05
4.00641e-05
4.00232e-05
3.99765e-05
3.99233e-05
3.98627e-05
3.97943e-05
3.97176e-05
3.96325e-05
3.95385e-05
3.94346e-05
3.93195e-05
3.91908e-05
3.9046e-05
3.8883e-05
3.86975e-05
3.84833e-05
3.82329e-05
3.79317e-05
3.75943e-05
3.72317e-05
4.06512e-05
4.06472e-05
4.0643e-05
4.06382e-05
4.06329e-05
4.06275e-05
4.0622e-05
4.06163e-05
4.06103e-05
4.06039e-05
4.05971e-05
4.05899e-05
4.05823e-05
4.05745e-05
4.05665e-05
4.05585e-05
4.05504e-05
4.05424e-05
4.05343e-05
4.0526e-05
4.05175e-05
4.05087e-05
4.04997e-05
4.04905e-05
4.0481e-05
4.04713e-05
4.04615e-05
4.04514e-05
4.04412e-05
4.0431e-05
4.04202e-05
4.0408e-05
4.03944e-05
4.038e-05
4.0365e-05
4.03494e-05
4.03333e-05
4.03166e-05
4.02993e-05
4.02812e-05
4.02621e-05
4.02418e-05
4.02201e-05
4.01965e-05
4.01708e-05
4.01422e-05
4.01104e-05
4.00746e-05
4.00343e-05
3.99889e-05
3.99377e-05
3.98801e-05
3.98157e-05
3.97443e-05
3.96656e-05
3.95794e-05
3.94851e-05
3.93816e-05
3.92675e-05
3.9141e-05
3.89993e-05
3.88389e-05
3.86558e-05
3.84442e-05
3.81968e-05
3.79047e-05
3.75563e-05
3.7168e-05
3.68088e-05
4.06215e-05
4.06222e-05
4.06215e-05
4.06191e-05
4.06152e-05
4.06104e-05
4.0605e-05
4.05991e-05
4.05929e-05
4.05864e-05
4.05795e-05
4.05722e-05
4.05644e-05
4.05562e-05
4.05476e-05
4.05387e-05
4.05295e-05
4.052e-05
4.05104e-05
4.05007e-05
4.04909e-05
4.04809e-05
4.04709e-05
4.04608e-05
4.04506e-05
4.04403e-05
4.043e-05
4.04195e-05
4.04088e-05
4.03979e-05
4.03866e-05
4.03745e-05
4.03615e-05
4.03476e-05
4.03331e-05
4.03177e-05
4.03014e-05
4.0284e-05
4.02653e-05
4.02451e-05
4.02231e-05
4.01989e-05
4.01723e-05
4.01428e-05
4.01101e-05
4.00736e-05
4.00329e-05
3.99876e-05
3.99373e-05
3.98816e-05
3.98203e-05
3.97532e-05
3.96801e-05
3.96007e-05
3.95145e-05
3.94206e-05
3.93178e-05
3.92046e-05
3.90794e-05
3.89396e-05
3.87819e-05
3.86012e-05
3.83916e-05
3.8146e-05
3.78558e-05
3.75115e-05
3.71086e-05
3.66763e-05
3.64021e-05
4.05567e-05
4.05653e-05
4.0571e-05
4.05737e-05
4.0574e-05
4.05726e-05
4.05696e-05
4.05655e-05
4.05604e-05
4.05547e-05
4.05483e-05
4.05416e-05
4.05344e-05
4.05268e-05
4.05189e-05
4.05106e-05
4.05018e-05
4.04928e-05
4.04834e-05
4.04737e-05
4.04638e-05
4.04537e-05
4.04433e-05
4.04327e-05
4.0422e-05
4.04111e-05
4.04e-05
4.03887e-05
4.03774e-05
4.03656e-05
4.03532e-05
4.03401e-05
4.0326e-05
4.03107e-05
4.02942e-05
4.02762e-05
4.02567e-05
4.02354e-05
4.0212e-05
4.01864e-05
4.01582e-05
4.01271e-05
4.00929e-05
4.00552e-05
4.00139e-05
3.99686e-05
3.99194e-05
3.98658e-05
3.98075e-05
3.97446e-05
3.96766e-05
3.96033e-05
3.95241e-05
3.94383e-05
3.93448e-05
3.92426e-05
3.913e-05
3.90054e-05
3.88661e-05
3.87092e-05
3.853e-05
3.83225e-05
3.80785e-05
3.77892e-05
3.74446e-05
3.7038e-05
3.65829e-05
3.6144e-05
3.6142e-05
4.04771e-05
4.04877e-05
4.04943e-05
4.04985e-05
4.05014e-05
4.05029e-05
4.0503e-05
4.05017e-05
4.0499e-05
4.04952e-05
4.04904e-05
4.04848e-05
4.04786e-05
4.04718e-05
4.04646e-05
4.0457e-05
4.0449e-05
4.04406e-05
4.04318e-05
4.04226e-05
4.0413e-05
4.0403e-05
4.03926e-05
4.03819e-05
4.03709e-05
4.03595e-05
4.03478e-05
4.03357e-05
4.03232e-05
4.031e-05
4.02957e-05
4.02801e-05
4.0263e-05
4.02441e-05
4.02235e-05
4.02009e-05
4.01763e-05
4.01493e-05
4.01199e-05
4.0088e-05
4.00532e-05
4.00156e-05
3.99749e-05
3.99309e-05
3.98834e-05
3.98324e-05
3.97776e-05
3.97189e-05
3.96558e-05
3.95879e-05
3.95148e-05
3.94358e-05
3.93501e-05
3.92568e-05
3.91547e-05
3.90422e-05
3.89174e-05
3.87779e-05
3.86205e-05
3.84409e-05
3.82334e-05
3.79903e-05
3.77017e-05
3.73565e-05
3.69452e-05
3.64726e-05
3.59939e-05
3.56567e-05
3.63036e-05
4.03981e-05
4.04019e-05
4.04018e-05
4.04021e-05
4.04031e-05
4.04044e-05
4.04054e-05
4.04057e-05
4.04051e-05
4.04033e-05
4.04004e-05
4.03964e-05
4.03915e-05
4.03857e-05
4.03792e-05
4.0372e-05
4.03642e-05
4.0356e-05
4.03473e-05
4.03382e-05
4.03287e-05
4.03188e-05
4.03084e-05
4.02976e-05
4.02862e-05
4.02743e-05
4.02617e-05
4.02484e-05
4.02343e-05
4.02188e-05
4.02016e-05
4.01824e-05
4.01613e-05
4.01383e-05
4.01133e-05
4.00863e-05
4.0057e-05
4.00255e-05
3.99915e-05
3.99551e-05
3.99161e-05
3.98743e-05
3.98296e-05
3.97818e-05
3.97307e-05
3.96759e-05
3.96172e-05
3.95542e-05
3.94865e-05
3.94135e-05
3.93345e-05
3.92488e-05
3.91553e-05
3.90528e-05
3.89396e-05
3.88138e-05
3.86731e-05
3.85142e-05
3.8333e-05
3.81238e-05
3.78789e-05
3.75887e-05
3.72419e-05
3.6827e-05
3.63415e-05
3.58199e-05
3.54068e-05
3.54338e-05
3.74358e-05
4.03263e-05
4.03222e-05
4.03173e-05
4.0313e-05
4.03092e-05
4.03057e-05
4.03024e-05
4.0299e-05
4.02955e-05
4.02916e-05
4.02874e-05
4.02829e-05
4.0278e-05
4.02727e-05
4.02669e-05
4.02605e-05
4.02534e-05
4.02456e-05
4.02371e-05
4.0228e-05
4.02182e-05
4.02077e-05
4.01965e-05
4.01845e-05
4.01718e-05
4.01584e-05
4.01443e-05
4.01299e-05
4.01142e-05
4.0096e-05
4.00756e-05
4.00531e-05
4.00287e-05
4.00025e-05
3.99744e-05
3.99444e-05
3.99122e-05
3.98778e-05
3.98412e-05
3.9802e-05
3.97602e-05
3.97156e-05
3.9668e-05
3.9617e-05
3.95624e-05
3.95038e-05
3.94409e-05
3.93731e-05
3.92999e-05
3.92205e-05
3.9134e-05
3.90395e-05
3.89357e-05
3.8821e-05
3.86933e-05
3.85502e-05
3.83885e-05
3.82041e-05
3.79914e-05
3.77425e-05
3.74476e-05
3.70957e-05
3.66752e-05
3.61796e-05
3.56282e-05
3.51254e-05
3.50004e-05
3.59732e-05
4.05647e-05
4.02585e-05
4.02492e-05
4.02403e-05
4.02319e-05
4.02241e-05
4.02167e-05
4.02096e-05
4.02028e-05
4.01959e-05
4.0189e-05
4.01818e-05
4.01744e-05
4.01666e-05
4.01584e-05
4.01497e-05
4.01404e-05
4.01306e-05
4.01202e-05
4.01095e-05
4.00985e-05
4.00874e-05
4.0076e-05
4.00641e-05
4.00517e-05
4.00386e-05
4.00246e-05
4.00097e-05
3.99932e-05
3.99744e-05
3.99531e-05
3.993e-05
3.99053e-05
3.9879e-05
3.98508e-05
3.98207e-05
3.97887e-05
3.97545e-05
3.97181e-05
3.96792e-05
3.96376e-05
3.95932e-05
3.95457e-05
3.94947e-05
3.944e-05
3.93811e-05
3.93177e-05
3.92491e-05
3.91748e-05
3.90941e-05
3.9006e-05
3.89095e-05
3.88034e-05
3.86858e-05
3.85548e-05
3.84078e-05
3.82413e-05
3.80515e-05
3.78326e-05
3.75769e-05
3.72744e-05
3.69137e-05
3.6484e-05
3.59777e-05
3.54044e-05
3.48393e-05
3.45393e-05
3.52112e-05
3.8221e-05
4.73057e-05
4.01898e-05
4.01775e-05
4.01656e-05
4.01541e-05
4.0143e-05
4.01322e-05
4.01217e-05
4.01115e-05
4.01014e-05
4.00914e-05
4.00813e-05
4.00711e-05
4.00607e-05
4.00499e-05
4.00388e-05
4.00272e-05
4.00151e-05
4.00024e-05
3.9989e-05
3.99749e-05
3.99602e-05
3.99447e-05
3.99285e-05
3.99116e-05
3.98941e-05
3.98764e-05
3.98586e-05
3.98384e-05
3.98156e-05
3.97913e-05
3.97659e-05
3.97392e-05
3.97112e-05
3.96816e-05
3.96501e-05
3.96165e-05
3.95805e-05
3.95419e-05
3.95006e-05
3.94562e-05
3.94086e-05
3.93574e-05
3.93023e-05
3.92428e-05
3.91784e-05
3.91087e-05
3.9033e-05
3.89505e-05
3.88602e-05
3.87611e-05
3.86517e-05
3.85303e-05
3.83947e-05
3.82421e-05
3.8069e-05
3.78709e-05
3.76425e-05
3.73762e-05
3.70622e-05
3.66889e-05
3.62459e-05
3.57267e-05
3.51359e-05
3.45285e-05
3.41079e-05
3.44454e-05
3.69398e-05
4.38799e-05
5.98398e-05
4.01127e-05
4.00996e-05
4.00863e-05
4.0073e-05
4.00597e-05
4.00465e-05
4.00334e-05
4.00204e-05
4.00074e-05
3.99945e-05
3.99815e-05
3.99684e-05
3.99551e-05
3.99417e-05
3.99279e-05
3.99137e-05
3.98991e-05
3.9884e-05
3.98683e-05
3.98519e-05
3.98348e-05
3.98168e-05
3.9798e-05
3.97782e-05
3.97574e-05
3.97356e-05
3.97125e-05
3.96881e-05
3.96622e-05
3.96348e-05
3.96057e-05
3.95749e-05
3.95423e-05
3.95077e-05
3.9471e-05
3.94321e-05
3.9391e-05
3.93475e-05
3.93014e-05
3.92524e-05
3.91999e-05
3.91434e-05
3.90825e-05
3.90165e-05
3.89448e-05
3.88669e-05
3.87817e-05
3.86883e-05
3.85854e-05
3.84716e-05
3.8345e-05
3.82033e-05
3.80434e-05
3.78617e-05
3.76534e-05
3.74126e-05
3.7132e-05
3.68023e-05
3.64125e-05
3.59519e-05
3.54153e-05
3.48075e-05
3.41717e-05
3.36726e-05
3.37896e-05
3.57127e-05
4.18615e-05
5.55256e-05
8.0341e-05
4.00217e-05
4.00084e-05
3.99946e-05
3.99805e-05
3.99662e-05
3.99516e-05
3.99369e-05
3.9922e-05
3.99069e-05
3.98916e-05
3.98762e-05
3.98606e-05
3.98447e-05
3.98286e-05
3.98121e-05
3.97952e-05
3.97779e-05
3.97601e-05
3.97417e-05
3.97226e-05
3.97028e-05
3.96822e-05
3.96606e-05
3.96381e-05
3.96145e-05
3.95897e-05
3.95636e-05
3.95361e-05
3.9507e-05
3.94763e-05
3.94437e-05
3.94091e-05
3.93724e-05
3.93334e-05
3.92919e-05
3.92476e-05
3.92004e-05
3.91499e-05
3.90958e-05
3.90379e-05
3.89756e-05
3.89087e-05
3.88368e-05
3.87595e-05
3.86762e-05
3.85856e-05
3.84866e-05
3.83775e-05
3.82569e-05
3.81227e-05
3.79723e-05
3.78024e-05
3.7609e-05
3.73869e-05
3.71299e-05
3.68306e-05
3.64804e-05
3.60694e-05
3.55878e-05
3.50302e-05
3.44029e-05
3.37461e-05
3.32047e-05
3.31908e-05
3.47384e-05
4.00812e-05
5.27262e-05
7.60073e-05
0.000109594
3.99051e-05
3.98924e-05
3.98791e-05
3.98653e-05
3.98509e-05
3.98361e-05
3.98207e-05
3.9805e-05
3.97888e-05
3.97722e-05
3.97552e-05
3.97378e-05
3.972e-05
3.97017e-05
3.96829e-05
3.96636e-05
3.96437e-05
3.96232e-05
3.9602e-05
3.95801e-05
3.95574e-05
3.95337e-05
3.95091e-05
3.94834e-05
3.94565e-05
3.94283e-05
3.93986e-05
3.93674e-05
3.93343e-05
3.92994e-05
3.92624e-05
3.92232e-05
3.91815e-05
3.91372e-05
3.90899e-05
3.90394e-05
3.89853e-05
3.89273e-05
3.88651e-05
3.8798e-05
3.87255e-05
3.86472e-05
3.85621e-05
3.84694e-05
3.83684e-05
3.82578e-05
3.81367e-05
3.80038e-05
3.78573e-05
3.7694e-05
3.75099e-05
3.73003e-05
3.70595e-05
3.67807e-05
3.64561e-05
3.60779e-05
3.56396e-05
3.51328e-05
3.45506e-05
3.39027e-05
3.32316e-05
3.26776e-05
3.26217e-05
3.39953e-05
3.88403e-05
5.05176e-05
7.2859e-05
0.000106095
0.000142214
3.97545e-05
3.97426e-05
3.973e-05
3.97167e-05
3.97028e-05
3.96882e-05
3.9673e-05
3.96571e-05
3.96405e-05
3.96234e-05
3.96055e-05
3.95871e-05
3.95679e-05
3.95481e-05
3.95275e-05
3.95063e-05
3.94842e-05
3.94613e-05
3.94375e-05
3.94128e-05
3.93871e-05
3.93603e-05
3.93323e-05
3.9303e-05
3.92723e-05
3.92401e-05
3.92061e-05
3.91703e-05
3.91324e-05
3.90922e-05
3.90497e-05
3.90045e-05
3.89563e-05
3.8905e-05
3.88502e-05
3.87914e-05
3.87284e-05
3.86607e-05
3.85876e-05
3.85087e-05
3.84232e-05
3.83303e-05
3.8229e-05
3.81183e-05
3.79969e-05
3.78631e-05
3.77152e-05
3.75508e-05
3.73672e-05
3.71608e-05
3.69268e-05
3.66591e-05
3.63505e-05
3.59937e-05
3.55811e-05
3.5107e-05
3.45691e-05
3.39578e-05
3.32863e-05
3.26084e-05
3.20754e-05
3.20731e-05
3.34865e-05
3.82162e-05
4.93869e-05
7.08715e-05
0.000103668
0.000140097
0.000166258
3.95663e-05
3.95543e-05
3.95417e-05
3.95284e-05
3.95144e-05
3.94997e-05
3.94843e-05
3.94682e-05
3.94512e-05
3.94335e-05
3.94149e-05
3.93955e-05
3.93753e-05
3.93541e-05
3.9332e-05
3.93089e-05
3.92848e-05
3.92596e-05
3.92333e-05
3.92057e-05
3.91769e-05
3.91466e-05
3.91149e-05
3.90816e-05
3.90466e-05
3.90096e-05
3.89705e-05
3.89291e-05
3.88852e-05
3.88386e-05
3.8789e-05
3.87362e-05
3.86798e-05
3.86195e-05
3.85549e-05
3.84856e-05
3.84109e-05
3.83304e-05
3.82433e-05
3.81489e-05
3.80463e-05
3.79344e-05
3.78119e-05
3.76774e-05
3.75292e-05
3.73652e-05
3.71826e-05
3.6978e-05
3.67472e-05
3.64848e-05
3.61843e-05
3.58387e-05
3.54396e-05
3.49824e-05
3.44666e-05
3.38843e-05
3.32337e-05
3.25374e-05
3.18654e-05
3.14034e-05
3.15704e-05
3.32888e-05
3.83656e-05
4.968e-05
7.08542e-05
0.000103172
0.000139504
0.00016447
0.000171507
3.93378e-05
3.93245e-05
3.93106e-05
3.92961e-05
3.9281e-05
3.92651e-05
3.92485e-05
3.92312e-05
3.9213e-05
3.91939e-05
3.91739e-05
3.9153e-05
3.9131e-05
3.91079e-05
3.90837e-05
3.90584e-05
3.90317e-05
3.90037e-05
3.89743e-05
3.89434e-05
3.89108e-05
3.88765e-05
3.88403e-05
3.88021e-05
3.87617e-05
3.87189e-05
3.86735e-05
3.86253e-05
3.8574e-05
3.85193e-05
3.84609e-05
3.83986e-05
3.83318e-05
3.82601e-05
3.8183e-05
3.81e-05
3.80103e-05
3.79132e-05
3.78078e-05
3.7693e-05
3.75678e-05
3.74306e-05
3.72798e-05
3.71133e-05
3.69285e-05
3.67223e-05
3.64904e-05
3.62276e-05
3.59277e-05
3.55844e-05
3.51899e-05
3.47405e-05
3.42298e-05
3.36668e-05
3.30354e-05
3.23488e-05
3.16403e-05
3.10154e-05
3.07092e-05
3.12318e-05
3.35854e-05
3.956e-05
5.18374e-05
7.35404e-05
0.000105644
0.000141429
0.000165276
0.000168192
0.000163608
3.90607e-05
3.90451e-05
3.9029e-05
3.90122e-05
3.89947e-05
3.89765e-05
3.89576e-05
3.89378e-05
3.89172e-05
3.88955e-05
3.88729e-05
3.88492e-05
3.88244e-05
3.87983e-05
3.87709e-05
3.87421e-05
3.87118e-05
3.86799e-05
3.86462e-05
3.86107e-05
3.85732e-05
3.85335e-05
3.84916e-05
3.84471e-05
3.83998e-05
3.83495e-05
3.8296e-05
3.8239e-05
3.81781e-05
3.8113e-05
3.80432e-05
3.79684e-05
3.7888e-05
3.78014e-05
3.77079e-05
3.76067e-05
3.7497e-05
3.73778e-05
3.72477e-05
3.71055e-05
3.69494e-05
3.67773e-05
3.65868e-05
3.63744e-05
3.61362e-05
3.58669e-05
3.55605e-05
3.52107e-05
3.48111e-05
3.43587e-05
3.38483e-05
3.32914e-05
3.2671e-05
3.19936e-05
3.12823e-05
3.06094e-05
3.01167e-05
3.0138e-05
3.12882e-05
3.47374e-05
4.22858e-05
5.6442e-05
7.96695e-05
0.000111951
0.000146462
0.000168567
0.000168467
0.000158044
0.000156132
3.87154e-05
3.86971e-05
3.86781e-05
3.86583e-05
3.86377e-05
3.86163e-05
3.8594e-05
3.85707e-05
3.85464e-05
3.85211e-05
3.84946e-05
3.84668e-05
3.84376e-05
3.84071e-05
3.83749e-05
3.83411e-05
3.83055e-05
3.8268e-05
3.82283e-05
3.81864e-05
3.8142e-05
3.80949e-05
3.80449e-05
3.79918e-05
3.79353e-05
3.7875e-05
3.78107e-05
3.77419e-05
3.76682e-05
3.75891e-05
3.75041e-05
3.74125e-05
3.73136e-05
3.72066e-05
3.70906e-05
3.69645e-05
3.6827e-05
3.66768e-05
3.65121e-05
3.63306e-05
3.61297e-05
3.5906e-05
3.56551e-05
3.53718e-05
3.50508e-05
3.46852e-05
3.42712e-05
3.38064e-05
3.32866e-05
3.2727e-05
3.21088e-05
3.14406e-05
3.07417e-05
3.00667e-05
2.95279e-05
2.93664e-05
2.99728e-05
3.22053e-05
3.72939e-05
4.71566e-05
6.41195e-05
8.97648e-05
0.000122455
0.000154547
0.000173421
0.000171159
0.000158293
0.000150089
0.000147925
3.8267e-05
3.82456e-05
3.82232e-05
3.81999e-05
3.81756e-05
3.81502e-05
3.81238e-05
3.80961e-05
3.80672e-05
3.8037e-05
3.80053e-05
3.79721e-05
3.79372e-05
3.79006e-05
3.7862e-05
3.78214e-05
3.77785e-05
3.77333e-05
3.76854e-05
3.76346e-05
3.75807e-05
3.75235e-05
3.74626e-05
3.73976e-05
3.73282e-05
3.7254e-05
3.71744e-05
3.7089e-05
3.69972e-05
3.68983e-05
3.67915e-05
3.6676e-05
3.65507e-05
3.64146e-05
3.62663e-05
3.61042e-05
3.59264e-05
3.57304e-05
3.55133e-05
3.52711e-05
3.49996e-05
3.46939e-05
3.43477e-05
3.39562e-05
3.3518e-05
3.303e-05
3.25004e-05
3.19319e-05
3.13136e-05
3.06528e-05
2.99763e-05
2.9339e-05
2.8837e-05
2.86627e-05
2.91098e-05
3.08111e-05
3.46005e-05
4.19093e-05
5.47591e-05
7.51905e-05
0.000103567
0.000136192
0.00016443
0.000178286
0.000174228
0.000161868
0.000150138
0.000141962
0.000138159
3.76597e-05
3.76342e-05
3.76075e-05
3.75797e-05
3.75505e-05
3.75201e-05
3.74882e-05
3.74548e-05
3.74198e-05
3.73831e-05
3.73445e-05
3.7304e-05
3.72614e-05
3.72165e-05
3.71691e-05
3.7119e-05
3.70661e-05
3.701e-05
3.69505e-05
3.68872e-05
3.68199e-05
3.67482e-05
3.66717e-05
3.65899e-05
3.65023e-05
3.64084e-05
3.63075e-05
3.61987e-05
3.60813e-05
3.59541e-05
3.58162e-05
3.56661e-05
3.55023e-05
3.53231e-05
3.51262e-05
3.49087e-05
3.46671e-05
3.43975e-05
3.40951e-05
3.37551e-05
3.33729e-05
3.29476e-05
3.24767e-05
3.19601e-05
3.14231e-05
3.08426e-05
3.02298e-05
2.95953e-05
2.89716e-05
2.84094e-05
2.80252e-05
2.7977e-05
2.85198e-05
3.00873e-05
3.32789e-05
3.90626e-05
4.89962e-05
6.5122e-05
8.89193e-05
0.000119095
0.000149912
0.000172918
0.000181756
0.000178355
0.000166903
0.000153691
0.000143588
0.000134507
0.000127862
3.68026e-05
3.67713e-05
3.67385e-05
3.67043e-05
3.66684e-05
3.66309e-05
3.65915e-05
3.65502e-05
3.65068e-05
3.64612e-05
3.64133e-05
3.63627e-05
3.63094e-05
3.62531e-05
3.61936e-05
3.61305e-05
3.60636e-05
3.59925e-05
3.59169e-05
3.58363e-05
3.57502e-05
3.56582e-05
3.55596e-05
3.54537e-05
3.53398e-05
3.52169e-05
3.50841e-05
3.49403e-05
3.47841e-05
3.4614e-05
3.44282e-05
3.42243e-05
3.39997e-05
3.3751e-05
3.34746e-05
3.31656e-05
3.282e-05
3.24353e-05
3.20115e-05
3.15468e-05
3.10407e-05
3.05258e-05
2.99776e-05
2.94074e-05
2.88259e-05
2.82578e-05
2.77449e-05
2.73596e-05
2.71951e-05
2.73637e-05
2.81895e-05
2.99082e-05
3.29311e-05
3.78738e-05
4.57535e-05
5.8162e-05
7.69399e-05
0.000102541
0.000131798
0.000158055
0.000175426
0.000182137
0.000180679
0.000171193
0.00015749
0.000148807
0.000139728
0.000129612
0.00011971
3.55312e-05
3.54911e-05
3.54492e-05
3.54053e-05
3.53594e-05
3.53112e-05
3.52607e-05
3.52076e-05
3.51519e-05
3.50931e-05
3.50313e-05
3.4966e-05
3.4897e-05
3.48239e-05
3.47466e-05
3.46644e-05
3.4577e-05
3.4484e-05
3.43847e-05
3.42785e-05
3.41651e-05
3.40434e-05
3.39128e-05
3.3772e-05
3.36199e-05
3.3455e-05
3.32755e-05
3.30795e-05
3.28645e-05
3.26277e-05
3.23661e-05
3.2076e-05
3.17534e-05
3.13946e-05
3.09992e-05
3.05675e-05
3.01008e-05
2.96187e-05
2.91313e-05
2.86277e-05
2.81147e-05
2.76055e-05
2.71241e-05
2.67215e-05
2.64477e-05
2.63542e-05
2.65442e-05
2.71699e-05
2.83737e-05
3.03472e-05
3.33825e-05
3.78611e-05
4.43206e-05
5.36722e-05
6.73431e-05
8.66188e-05
0.000110645
0.000135077
0.000155218
0.000169235
0.000177198
0.000178471
0.000172714
0.000162048
0.000154296
0.000147874
0.000139999
0.000129585
0.000116789
3.35435e-05
3.3491e-05
3.34361e-05
3.33788e-05
3.33187e-05
3.32558e-05
3.31898e-05
3.31205e-05
3.30476e-05
3.29709e-05
3.289e-05
3.28046e-05
3.27144e-05
3.26188e-05
3.25175e-05
3.24099e-05
3.22953e-05
3.21731e-05
3.20425e-05
3.19027e-05
3.17519e-05
3.1589e-05
3.14123e-05
3.122e-05
3.101e-05
3.07801e-05
3.05279e-05
3.02507e-05
2.99459e-05
2.96111e-05
2.92443e-05
2.88465e-05
2.84202e-05
2.79706e-05
2.754e-05
2.71069e-05
2.66808e-05
2.62683e-05
2.59026e-05
2.56098e-05
2.54175e-05
2.53217e-05
2.54132e-05
2.58212e-05
2.65417e-05
2.76327e-05
2.91958e-05
3.13792e-05
3.43757e-05
3.84044e-05
4.37622e-05
5.07343e-05
5.97558e-05
7.17807e-05
8.77012e-05
0.000106026
0.000123858
0.000140137
0.000153906
0.000163655
0.000168159
0.000166718
0.000160353
0.00015394
0.000151846
0.000148378
0.000142489
0.000133193
0.000119672
3.02716e-05
3.02039e-05
3.01334e-05
3.00599e-05
2.9983e-05
2.99025e-05
2.98183e-05
2.97299e-05
2.96372e-05
2.95397e-05
2.94371e-05
2.9329e-05
2.92149e-05
2.90942e-05
2.89664e-05
2.88309e-05
2.86868e-05
2.85331e-05
2.8367e-05
2.8187e-05
2.7992e-05
2.77806e-05
2.75519e-05
2.73048e-05
2.70387e-05
2.67535e-05
2.64494e-05
2.6128e-05
2.5792e-05
2.54457e-05
2.50974e-05
2.47964e-05
2.45389e-05
2.43262e-05
2.4132e-05
2.40102e-05
2.39769e-05
2.40591e-05
2.43764e-05
2.48694e-05
2.55455e-05
2.64122e-05
2.74842e-05
2.87938e-05
3.04037e-05
3.24169e-05
3.49975e-05
3.83471e-05
4.26161e-05
4.74946e-05
5.26784e-05
5.81871e-05
6.42786e-05
7.24073e-05
8.43176e-05
9.91827e-05
0.000114173
0.000127743
0.000138595
0.000145642
0.000147948
0.000144758
0.000140921
0.000144427
0.000146571
0.000145566
0.000141259
0.000132813
0.000119046
2.49524e-05
2.48845e-05
2.48141e-05
2.47411e-05
2.46653e-05
2.45865e-05
2.45045e-05
2.44192e-05
2.43302e-05
2.42372e-05
2.41401e-05
2.40383e-05
2.39319e-05
2.38204e-05
2.37036e-05
2.35813e-05
2.34532e-05
2.332e-05
2.31842e-05
2.30473e-05
2.2911e-05
2.27775e-05
2.26494e-05
2.25299e-05
2.24229e-05
2.23329e-05
2.22655e-05
2.22283e-05
2.22285e-05
2.22725e-05
2.23637e-05
2.26386e-05
2.30027e-05
2.34505e-05
2.39761e-05
2.45712e-05
2.52295e-05
2.59436e-05
2.6708e-05
2.7511e-05
2.83467e-05
2.9233e-05
3.02419e-05
3.15352e-05
3.33138e-05
3.54825e-05
3.7873e-05
4.07675e-05
4.37433e-05
4.38071e-05
4.16242e-05
4.05789e-05
4.31027e-05
5.01554e-05
6.12313e-05
7.57402e-05
8.82224e-05
9.83099e-05
0.000105086
0.000107814
0.000109528
0.000111014
0.00011433
0.000123908
0.000129372
0.000129831
0.000126169
0.000118107
0.000104561
1.93232e-05
1.94102e-05
1.94969e-05
1.95828e-05
1.96675e-05
1.9751e-05
1.98334e-05
1.99148e-05
1.99953e-05
2.00749e-05
2.01539e-05
2.02329e-05
2.03199e-05
2.04169e-05
2.05259e-05
2.06483e-05
2.07854e-05
2.09379e-05
2.11067e-05
2.12925e-05
2.14962e-05
2.17183e-05
2.19593e-05
2.22192e-05
2.24975e-05
2.27931e-05
2.31038e-05
2.34264e-05
2.37559e-05
2.40858e-05
2.4407e-05
2.47099e-05
2.49808e-05
2.52042e-05
2.53645e-05
2.54479e-05
2.54473e-05
2.5368e-05
2.52153e-05
2.49742e-05
2.47529e-05
2.46678e-05
2.49595e-05
2.61687e-05
2.8245e-05
2.84492e-05
2.64846e-05
2.43783e-05
2.29553e-05
2.23997e-05
2.08368e-05
2.09024e-05
2.32546e-05
2.73854e-05
3.29247e-05
3.94733e-05
4.61129e-05
5.24211e-05
5.78708e-05
6.18981e-05
6.51121e-05
6.81001e-05
7.14139e-05
7.57056e-05
7.77259e-05
7.68116e-05
7.29476e-05
6.60079e-05
5.6164e-05
1.89764e-05
1.91038e-05
1.92297e-05
1.93538e-05
1.94757e-05
1.95948e-05
1.97107e-05
1.98228e-05
1.99308e-05
2.00339e-05
2.01315e-05
2.02222e-05
2.02969e-05
2.0354e-05
2.03926e-05
2.04124e-05
2.0413e-05
2.03936e-05
2.03531e-05
2.02897e-05
2.02014e-05
2.00851e-05
1.99376e-05
1.97548e-05
1.95318e-05
1.92631e-05
1.89424e-05
1.85625e-05
1.81157e-05
1.75936e-05
1.69873e-05
1.62876e-05
1.54859e-05
1.45742e-05
1.35481e-05
1.24119e-05
1.11909e-05
9.9373e-06
8.80786e-06
8.08891e-06
7.80902e-06
7.64859e-06
7.56664e-06
8.58368e-06
1.07269e-05
1.1863e-05
1.13053e-05
1.05449e-05
9.98848e-06
9.59954e-06
9.11448e-06
9.24786e-06
1.01199e-05
1.1297e-05
1.25102e-05
1.34131e-05
1.35804e-05
1.30727e-05
1.45372e-05
1.59928e-05
1.73082e-05
1.83483e-05
1.9221e-05
2.01131e-05
2.03819e-05
1.98676e-05
1.85499e-05
1.64056e-05
1.36396e-05
4.0534e-05
4.05329e-05
4.05308e-05
4.05276e-05
4.05246e-05
4.05253e-05
4.05316e-05
4.05414e-05
4.05497e-05
4.05501e-05
4.05491e-05
4.05473e-05
4.0539e-05
4.05363e-05
4.05375e-05
4.05374e-05
4.05303e-05
4.05383e-05
4.05409e-05
4.05631e-05
4.05791e-05
4.05629e-05
4.05559e-05
4.0547e-05
4.05398e-05
4.05136e-05
4.05297e-05
4.05613e-05
4.05757e-05
4.05696e-05
4.06193e-05
4.06308e-05
4.0649e-05
4.06602e-05
4.0659e-05
4.06512e-05
4.06592e-05
4.06622e-05
4.06675e-05
4.06687e-05
4.067e-05
4.06834e-05
4.06897e-05
4.069e-05
4.06924e-05
4.06932e-05
4.07073e-05
4.07273e-05
4.07395e-05
4.074e-05
4.07395e-05
4.07394e-05
4.07439e-05
4.07521e-05
4.07615e-05
4.07695e-05
4.07744e-05
4.07766e-05
4.07774e-05
4.04942e-05
4.0494e-05
4.04946e-05
4.04962e-05
4.05005e-05
4.05079e-05
4.05181e-05
4.05247e-05
4.05223e-05
4.05221e-05
4.05211e-05
4.05175e-05
4.0514e-05
4.05172e-05
4.05238e-05
4.05121e-05
4.05114e-05
4.05169e-05
4.05266e-05
4.05539e-05
4.05583e-05
4.05415e-05
4.05352e-05
4.05352e-05
4.05195e-05
4.04949e-05
4.05089e-05
4.05466e-05
4.05705e-05
4.05653e-05
4.06044e-05
4.06286e-05
4.06449e-05
4.06589e-05
4.0663e-05
4.0657e-05
4.06595e-05
4.0663e-05
4.0664e-05
4.0666e-05
4.0664e-05
4.06647e-05
4.06649e-05
4.06691e-05
4.06785e-05
4.06829e-05
4.069e-05
4.0703e-05
4.0716e-05
4.07224e-05
4.07246e-05
4.07207e-05
4.07138e-05
4.07102e-05
4.071e-05
4.07123e-05
4.07154e-05
4.07181e-05
4.07196e-05
4.04582e-05
4.04609e-05
4.04654e-05
4.04715e-05
4.04795e-05
4.04891e-05
4.04956e-05
4.0494e-05
4.04927e-05
4.04927e-05
4.04918e-05
4.04909e-05
4.0495e-05
4.05033e-05
4.04976e-05
4.04866e-05
4.04894e-05
4.04976e-05
4.05202e-05
4.05483e-05
4.05446e-05
4.05186e-05
4.05166e-05
4.0527e-05
4.04986e-05
4.0475e-05
4.04867e-05
4.05331e-05
4.05653e-05
4.05648e-05
4.05926e-05
4.06231e-05
4.06405e-05
4.06553e-05
4.06637e-05
4.06619e-05
4.06613e-05
4.06638e-05
4.06634e-05
4.06638e-05
4.06625e-05
4.06594e-05
4.06551e-05
4.06527e-05
4.0659e-05
4.06669e-05
4.06742e-05
4.06837e-05
4.06953e-05
4.07052e-05
4.07116e-05
4.0713e-05
4.07095e-05
4.07032e-05
4.06923e-05
4.06837e-05
4.06783e-05
4.0675e-05
4.06725e-05
4.04254e-05
4.04306e-05
4.04371e-05
4.04442e-05
4.04514e-05
4.04575e-05
4.04607e-05
4.04607e-05
4.04609e-05
4.04615e-05
4.04619e-05
4.0464e-05
4.04699e-05
4.04731e-05
4.04653e-05
4.046e-05
4.04655e-05
4.04789e-05
4.05093e-05
4.05387e-05
4.05224e-05
4.04935e-05
4.04955e-05
4.05153e-05
4.04758e-05
4.04531e-05
4.04626e-05
4.05075e-05
4.0556e-05
4.05637e-05
4.05824e-05
4.0614e-05
4.06339e-05
4.0649e-05
4.06604e-05
4.06633e-05
4.06628e-05
4.0664e-05
4.06632e-05
4.06616e-05
4.06598e-05
4.06567e-05
4.06517e-05
4.06442e-05
4.06398e-05
4.06419e-05
4.06475e-05
4.06555e-05
4.06666e-05
4.06787e-05
4.06895e-05
4.06972e-05
4.0701e-05
4.07006e-05
4.06958e-05
4.06878e-05
4.0677e-05
4.06643e-05
4.06583e-05
4.03925e-05
4.03985e-05
4.04052e-05
4.04116e-05
4.04173e-05
4.04216e-05
4.04241e-05
4.04255e-05
4.04267e-05
4.0428e-05
4.04299e-05
4.04332e-05
4.04372e-05
4.04372e-05
4.04323e-05
4.04319e-05
4.04405e-05
4.04583e-05
4.04889e-05
4.05123e-05
4.04903e-05
4.04666e-05
4.04717e-05
4.049e-05
4.04507e-05
4.04288e-05
4.04361e-05
4.04763e-05
4.05341e-05
4.05581e-05
4.05715e-05
4.06022e-05
4.06255e-05
4.06415e-05
4.06544e-05
4.06613e-05
4.0663e-05
4.06636e-05
4.06626e-05
4.06594e-05
4.0656e-05
4.06529e-05
4.06486e-05
4.06398e-05
4.06266e-05
4.06166e-05
4.0613e-05
4.06139e-05
4.06193e-05
4.06296e-05
4.06424e-05
4.06553e-05
4.06662e-05
4.0674e-05
4.06781e-05
4.06778e-05
4.06734e-05
4.06626e-05
4.06551e-05
4.03563e-05
4.0362e-05
4.03683e-05
4.03739e-05
4.03787e-05
4.03826e-05
4.03854e-05
4.03876e-05
4.03896e-05
4.03917e-05
4.03945e-05
4.03978e-05
4.04003e-05
4.03997e-05
4.03982e-05
4.0402e-05
4.04138e-05
4.04344e-05
4.04618e-05
4.04754e-05
4.0455e-05
4.04371e-05
4.04444e-05
4.04585e-05
4.04226e-05
4.04015e-05
4.04067e-05
4.04419e-05
4.04966e-05
4.05351e-05
4.0547e-05
4.05786e-05
4.06095e-05
4.06296e-05
4.06443e-05
4.0655e-05
4.06607e-05
4.06631e-05
4.06628e-05
4.06592e-05
4.06542e-05
4.06492e-05
4.06434e-05
4.06329e-05
4.0615e-05
4.05966e-05
4.05842e-05
4.0577e-05
4.0574e-05
4.05748e-05
4.05791e-05
4.05862e-05
4.05956e-05
4.0606e-05
4.06151e-05
4.06214e-05
4.06245e-05
4.06201e-05
4.06193e-05
4.0315e-05
4.03206e-05
4.03264e-05
4.03317e-05
4.03363e-05
4.03402e-05
4.03434e-05
4.03462e-05
4.03488e-05
4.03516e-05
4.03548e-05
4.03578e-05
4.03598e-05
4.03604e-05
4.03624e-05
4.03697e-05
4.03842e-05
4.04057e-05
4.04285e-05
4.0435e-05
4.04172e-05
4.04046e-05
4.04131e-05
4.04232e-05
4.03912e-05
4.03709e-05
4.0374e-05
4.04044e-05
4.04539e-05
4.04949e-05
4.05111e-05
4.05373e-05
4.05703e-05
4.05967e-05
4.06156e-05
4.06314e-05
4.06438e-05
4.06522e-05
4.06566e-05
4.06564e-05
4.06516e-05
4.06434e-05
4.06324e-05
4.06174e-05
4.0597e-05
4.05759e-05
4.05586e-05
4.05456e-05
4.05363e-05
4.05301e-05
4.05265e-05
4.05254e-05
4.05267e-05
4.05299e-05
4.0534e-05
4.0538e-05
4.05411e-05
4.0542e-05
4.05473e-05
4.02684e-05
4.02741e-05
4.02798e-05
4.0285e-05
4.02896e-05
4.02936e-05
4.02971e-05
4.03003e-05
4.03035e-05
4.03069e-05
4.03103e-05
4.03134e-05
4.03159e-05
4.03186e-05
4.03238e-05
4.03341e-05
4.03504e-05
4.03713e-05
4.03893e-05
4.03911e-05
4.03763e-05
4.03682e-05
4.03772e-05
4.03843e-05
4.03559e-05
4.03365e-05
4.03376e-05
4.03633e-05
4.04074e-05
4.04483e-05
4.0469e-05
4.0491e-05
4.05203e-05
4.05472e-05
4.05664e-05