/*--------------------------------*- C++ -*----------------------------------*\
| =========                 |                                                 |
| \\      /  F ield         | OpenFOAM: The Open Source CFD Toolbox           |
|  \\    /   O peration     | Version:  2312                                  |
|   \\  /    A nd           | Website:  www.openfoam.com                      |
|    \\/     M anipulation  |                                                 |
\*---------------------------------------------------------------------------*/
FoamFile
{
    version     2.0;
    format      ascii;
    arch        "LSB;label=32;scalar=64";
    class       volScalarField;
    location    "400";
    object      p;
}
// * * * * * * * * * * * * * * * * * * * * * * * * * * * * * * * * * * * * * //

dimensions      [0 2 -2 0 0 0 0];

internalField   nonuniform List<scalar> 
76025
(
0.000111451
0.000101605
9.13762e-05
8.11116e-05
7.09525e-05
6.06017e-05
4.98592e-05
3.96593e-05
2.91437e-05
1.88289e-05
8.38331e-06
-2.18775e-06
-1.28928e-05
-2.36107e-05
-3.45105e-05
-4.52706e-05
-5.59026e-05
-6.66098e-05
-7.74289e-05
-8.79503e-05
-9.83888e-05
-0.000109055
-0.000119655
-0.000130123
-0.000140611
-0.000150955
-0.000161641
-0.000172432
-0.000182523
-0.000193171
-0.000203198
-0.000213261
-0.000223992
-0.000234754
-0.000245154
-0.00025516
-0.000264781
-0.000275047
-0.000285343
-0.000295506
-0.000305088
-0.000314487
-0.000324792
-0.000335268
-0.000345124
-0.000354721
-0.000364735
-0.00037541
-0.000385347
-0.000395519
-0.000405929
-0.00041618
-0.000427137
-0.000438923
-0.000450857
-0.000462253
-0.000475097
-0.000488288
-0.000502285
-0.000517114
-0.000532812
-0.000550158
-0.000569672
-0.000590627
-0.00061325
-0.000637904
-0.00066501
-0.000696906
-0.000732369
0.000104525
9.40603e-05
8.34536e-05
7.2781e-05
6.20712e-05
5.12997e-05
4.05724e-05
2.98296e-05
1.89956e-05
8.10857e-06
-2.86536e-06
-1.38726e-05
-2.49054e-05
-3.59398e-05
-4.69099e-05
-5.78013e-05
-6.8797e-05
-7.96929e-05
-9.0669e-05
-0.000101478
-0.000112369
-0.000123181
-0.000133961
-0.000144698
-0.000155467
-0.000166285
-0.000177093
-0.000187677
-0.00019815
-0.000208593
-0.000218994
-0.000229687
-0.000240338
-0.000250763
-0.000261129
-0.000271347
-0.000281592
-0.000291814
-0.000302017
-0.000312213
-0.000322184
-0.00033219
-0.000342252
-0.000352261
-0.000362238
-0.000372252
-0.000382436
-0.000392737
-0.000403036
-0.000413515
-0.000424189
-0.00043498
-0.000446146
-0.000457765
-0.000469683
-0.000482005
-0.000495191
-0.000509013
-0.000523557
-0.000539052
-0.000556041
-0.000574806
-0.000595227
-0.000617645
-0.000642334
-0.00066983
-0.000700224
-0.00073462
-0.000771694
9.74312e-05
8.65738e-05
7.55677e-05
6.44725e-05
5.33417e-05
4.2252e-05
3.11513e-05
1.99826e-05
8.75571e-06
-2.52821e-06
-1.38378e-05
-2.51437e-05
-3.64366e-05
-4.77031e-05
-5.8924e-05
-7.0158e-05
-8.13892e-05
-9.26022e-05
-0.000103781
-0.00011493
-0.000126042
-0.000137097
-0.00014812
-0.000159119
-0.000170094
-0.000181032
-0.000191873
-0.000202627
-0.00021334
-0.000224018
-0.000234722
-0.000245441
-0.000256057
-0.000266576
-0.000277052
-0.000287467
-0.000297825
-0.000308121
-0.000318401
-0.000328647
-0.000338793
-0.000348874
-0.000358947
-0.000369074
-0.00037925
-0.000389454
-0.000399723
-0.000410108
-0.000420601
-0.000431212
-0.000442001
-0.000453008
-0.000464341
-0.000476115
-0.000488363
-0.000501125
-0.000514571
-0.000528833
-0.000544042
-0.000560452
-0.00057837
-0.000598094
-0.000619858
-0.000644015
-0.00067088
-0.000700901
-0.00073425
-0.000772205
-0.000812798
8.99517e-05
7.86849e-05
6.72601e-05
5.57515e-05
4.42326e-05
3.27337e-05
2.1219e-05
9.65855e-06
-1.94204e-06
-1.35672e-05
-2.51982e-05
-3.68235e-05
-4.84376e-05
-6.00388e-05
-7.16246e-05
-8.31957e-05
-9.47413e-05
-0.000106254
-0.000117725
-0.000129152
-0.000140528
-0.000151855
-0.000163134
-0.000174362
-0.000185534
-0.000196646
-0.000207698
-0.000218698
-0.000229649
-0.000240556
-0.000251429
-0.000262255
-0.000273011
-0.00028369
-0.000294293
-0.000304819
-0.00031527
-0.000325659
-0.000336001
-0.00034629
-0.000356512
-0.000366685
-0.000376853
-0.000387049
-0.000397275
-0.00040754
-0.000417877
-0.000428326
-0.000438897
-0.000449614
-0.000460533
-0.000471713
-0.000483225
-0.000495161
-0.000507594
-0.000520611
-0.000534362
-0.000549026
-0.000564773
-0.000581846
-0.000600562
-0.00062127
-0.000644297
-0.000670038
-0.000698906
-0.000731464
-0.00076795
-0.000809657
-0.00085444
8.16038e-05
6.98884e-05
5.8017e-05
4.60668e-05
3.41153e-05
2.21896e-05
1.02609e-05
-1.69956e-06
-1.3691e-05
-2.56966e-05
-3.77006e-05
-4.96939e-05
-6.1671e-05
-7.36275e-05
-8.55568e-05
-9.74503e-05
-0.000109303
-0.000121108
-0.00013286
-0.000144556
-0.00015619
-0.000167762
-0.000179267
-0.000190705
-0.000202076
-0.000213383
-0.000224625
-0.000235802
-0.000246913
-0.000257962
-0.000268957
-0.000279888
-0.000290737
-0.000301491
-0.00031215
-0.000322721
-0.000333217
-0.000343648
-0.000354027
-0.000364356
-0.000374637
-0.00038488
-0.000395111
-0.000405357
-0.000415637
-0.000425971
-0.000436385
-0.000446903
-0.00045755
-0.000468356
-0.00047937
-0.000490649
-0.000502264
-0.000514304
-0.000526865
-0.000540062
-0.000554041
-0.000568989
-0.000585121
-0.000602707
-0.000622082
-0.000643631
-0.000667769
-0.000694984
-0.00072579
-0.000760863
-0.000800543
-0.000846301
-0.000896337
7.23023e-05
6.01167e-05
4.77787e-05
3.53675e-05
2.29638e-05
1.05996e-05
-1.75508e-06
-1.4131e-05
-2.65284e-05
-3.89297e-05
-5.13184e-05
-6.36838e-05
-7.60195e-05
-8.83192e-05
-0.000100576
-0.000112781
-0.000124931
-0.000137019
-0.00014904
-0.00016099
-0.000172865
-0.000184661
-0.000196378
-0.000208014
-0.000219572
-0.00023105
-0.000242449
-0.00025377
-0.000265016
-0.000276193
-0.000287303
-0.00029833
-0.000309257
-0.000320076
-0.000330791
-0.000341416
-0.000351965
-0.00036245
-0.000372879
-0.000383258
-0.000393588
-0.000403879
-0.000414153
-0.000424436
-0.000434752
-0.000445122
-0.000455568
-0.000466115
-0.00047679
-0.000487628
-0.000498675
-0.00050999
-0.000521644
-0.000533724
-0.000546334
-0.000559599
-0.000573677
-0.000588768
-0.000605116
-0.000623019
-0.000642845
-0.000665031
-0.000690077
-0.000718571
-0.000751143
-0.000788614
-0.000831471
-0.000881396
-0.000936659
6.20295e-05
4.93522e-05
3.65278e-05
2.36378e-05
1.07666e-05
-2.05084e-06
-1.48458e-05
-2.76503e-05
-4.04646e-05
-5.32701e-05
-6.60487e-05
-7.87893e-05
-9.14848e-05
-0.000104129
-0.000116714
-0.000129235
-0.000141683
-0.000154053
-0.00016634
-0.000178541
-0.00019065
-0.000202666
-0.000214587
-0.000226413
-0.000238143
-0.00024978
-0.000261325
-0.000272781
-0.000284152
-0.000295445
-0.000306653
-0.000317758
-0.000328744
-0.000339611
-0.000350366
-0.000361024
-0.0003716
-0.000382107
-0.000392553
-0.000402944
-0.000413284
-0.000423585
-0.000433868
-0.000444159
-0.000454481
-0.000464857
-0.000475307
-0.000485855
-0.000496527
-0.000507359
-0.000518393
-0.000529686
-0.000541307
-0.000553343
-0.0005659
-0.00057911
-0.00059314
-0.000608201
-0.000624558
-0.000642541
-0.000662557
-0.000685101
-0.000710762
-0.000740243
-0.000774318
-0.000813991
-0.000859942
-0.000914106
-0.000974704
5.06647e-05
3.74701e-05
2.41359e-05
1.07458e-05
-2.61299e-06
-1.59028e-05
-2.91556e-05
-4.2405e-05
-5.5651e-05
-6.8874e-05
-8.20545e-05
-9.51804e-05
-0.000108244
-0.00012124
-0.00013416
-0.000146996
-0.000159743
-0.000172393
-0.000184942
-0.000197386
-0.00020972
-0.000221943
-0.000234054
-0.000246051
-0.000257937
-0.000269713
-0.000281383
-0.000292951
-0.000304421
-0.000315799
-0.000327072
-0.000338221
-0.000349235
-0.000360118
-0.000370881
-0.000381541
-0.000392115
-0.000402616
-0.000413055
-0.000423437
-0.000433768
-0.00044406
-0.000454335
-0.000464617
-0.000474926
-0.000485285
-0.000495711
-0.000506226
-0.000516855
-0.00052763
-0.000538592
-0.000549794
-0.0005613
-0.000573195
-0.000585582
-0.000598595
-0.000612403
-0.000627226
-0.000643345
-0.000661114
-0.000680983
-0.000703512
-0.000729383
-0.000759434
-0.000794611
-0.000836148
-0.000885
-0.00094344
-0.00101031
3.80508e-05
2.43113e-05
1.04421e-05
-3.47164e-06
-1.73402e-05
-3.11232e-05
-4.48529e-05
-5.85642e-05
-7.22573e-05
-8.59109e-05
-9.95041e-05
-0.000113024
-0.000126463
-0.000139813
-0.000153067
-0.000166217
-0.000179257
-0.000192179
-0.000204978
-0.00021765
-0.000230193
-0.000242604
-0.000254882
-0.000267029
-0.000279045
-0.000290935
-0.000302701
-0.000314351
-0.00032589
-0.00033732
-0.000348622
-0.000359782
-0.000370793
-0.000381662
-0.000392405
-0.000403042
-0.00041359
-0.000424062
-0.00043447
-0.000444821
-0.000455119
-0.000465378
-0.000475619
-0.000485862
-0.000496128
-0.000506437
-0.000516803
-0.000527247
-0.00053779
-0.00054846
-0.000559293
-0.000570335
-0.000581645
-0.000593297
-0.000605389
-0.000618047
-0.000631438
-0.000645781
-0.000661364
-0.000678563
-0.000697864
-0.000719892
-0.000745427
-0.000775459
-0.000811141
-0.000854002
-0.000905354
-0.000967932
-0.00104073
2.40302e-05
9.71705e-06
-4.71374e-06
-1.91756e-05
-3.35765e-05
-4.78732e-05
-6.20981e-05
-7.62876e-05
-9.04414e-05
-0.000104537
-0.000118552
-0.000132472
-0.000146288
-0.000159993
-0.000173579
-0.000187038
-0.000200361
-0.000213543
-0.000226579
-0.000239463
-0.000252195
-0.000264772
-0.000277195
-0.000289464
-0.000301583
-0.000313557
-0.00032539
-0.000337091
-0.000348665
-0.00036011
-0.000371405
-0.000382539
-0.000393511
-0.000404334
-0.000415025
-0.000425607
-0.000436096
-0.00044651
-0.000456857
-0.000467146
-0.000477382
-0.000487579
-0.000497755
-0.000507932
-0.000518128
-0.000528358
-0.000538635
-0.000548974
-0.000559393
-0.000569914
-0.000580565
-0.000591382
-0.000602413
-0.000613719
-0.000625383
-0.000637517
-0.000650274
-0.000663861
-0.000678564
-0.000694764
-0.000712976
-0.000733881
-0.00075836
-0.000787563
-0.000822887
-0.000866213
-0.000919333
-0.000985615
-0.00106446
8.42745e-06
-6.49054e-06
-2.15116e-05
-3.65475e-05
-5.15044e-05
-6.63358e-05
-8.10747e-05
-9.57584e-05
-0.000110387
-0.000124935
-0.00013938
-0.000153706
-0.000167902
-0.000181961
-0.000195875
-0.000209634
-0.000223231
-0.000236659
-0.000249914
-0.000262991
-0.000275888
-0.000288606
-0.000301144
-0.000313505
-0.000325694
-0.000337717
-0.00034958
-0.000361293
-0.000372862
-0.000384277
-0.000395519
-0.000406583
-0.000417474
-0.000428209
-0.000438809
-0.000449297
-0.000459694
-0.000470013
-0.000480268
-0.000490464
-0.000500609
-0.000510715
-0.000520802
-0.000530887
-0.000540986
-0.000551111
-0.000561271
-0.000571477
-0.000581738
-0.000592071
-0.000602492
-0.000613025
-0.0006237
-0.000634561
-0.000645666
-0.000657103
-0.000668997
-0.000681529
-0.000694961
-0.000709664
-0.000726159
-0.000745165
-0.000767656
-0.000794945
-0.000828719
-0.000871251
-0.000925031
-0.000993891
-0.00107875
-8.96511e-06
-2.45218e-05
-4.01641e-05
-5.58021e-05
-7.13402e-05
-8.6729e-05
-0.000102001
-0.000117196
-0.000132313
-0.000147326
-0.000162209
-0.000176944
-0.00019152
-0.000205931
-0.000220165
-0.000234214
-0.00024807
-0.000261726
-0.000275177
-0.00028842
-0.000301454
-0.000314278
-0.000326896
-0.00033931
-0.000351527
-0.000363555
-0.000375403
-0.000387081
-0.000398593
-0.000409923
-0.00042106
-0.000432002
-0.000442763
-0.000453363
-0.000463829
-0.000474183
-0.000484448
-0.000494639
-0.000504767
-0.000514839
-0.000524862
-0.000534851
-0.000544821
-0.00055479
-0.000564769
-0.000574765
-0.000584784
-0.000594832
-0.000604911
-0.000615026
-0.000625182
-0.000635385
-0.000645644
-0.000655975
-0.000666405
-0.000676982
-0.000687787
-0.000698954
-0.000710694
-0.000723338
-0.000737378
-0.00075354
-0.000772863
-0.000796818
-0.000827423
-0.000867451
-0.000920387
-0.000990265
-0.00108087
-2.83887e-05
-4.46206e-05
-6.09174e-05
-7.71876e-05
-9.33342e-05
-0.000109304
-0.000125131
-0.000140855
-0.000156475
-0.000171962
-0.000187289
-0.000202436
-0.000217391
-0.000232146
-0.000246689
-0.000261013
-0.000275108
-0.000288967
-0.000302586
-0.000315962
-0.000329095
-0.000341986
-0.000354638
-0.000367057
-0.000379252
-0.000391232
-0.000403009
-0.000414596
-0.000425987
-0.000437171
-0.000448139
-0.000458902
-0.000469477
-0.000479891
-0.000490172
-0.000500348
-0.000510438
-0.00052046
-0.000530424
-0.000540338
-0.000550208
-0.00056005
-0.000569879
-0.000579707
-0.000589544
-0.000599393
-0.000609255
-0.00061913
-0.000629012
-0.000638895
-0.000648769
-0.000658619
-0.000668427
-0.000678174
-0.000687843
-0.000697428
-0.000706945
-0.000716451
-0.000726074
-0.000736057
-0.000746814
-0.000759017
-0.000773717
-0.000792505
-0.000817751
-0.00085288
-0.000902764
-0.000972587
-0.00106981
-5.01208e-05
-6.70673e-05
-8.40544e-05
-0.000100989
-0.000117773
-0.00013435
-0.000150753
-0.000167024
-0.00018316
-0.000199132
-0.000214907
-0.000230466
-0.000245795
-0.000260884
-0.000275722
-0.000290299
-0.000304606
-0.000318637
-0.000332388
-0.000345855
-0.00035904
-0.000371946
-0.000384577
-0.000396943
-0.000409053
-0.000420921
-0.000432561
-0.000443983
-0.000455179
-0.00046614
-0.000476869
-0.000487383
-0.000497708
-0.000507876
-0.000517918
-0.000527863
-0.000537731
-0.00054754
-0.000557301
-0.00056702
-0.000576706
-0.000586373
-0.000596036
-0.000605703
-0.000615382
-0.000625071
-0.000634769
-0.000644468
-0.000654155
-0.000663813
-0.000673412
-0.000682917
-0.000692278
-0.000701433
-0.00071031
-0.000718832
-0.000726923
-0.000734531
-0.000741653
-0.000748383
-0.000754981
-0.000761979
-0.000770343
-0.000781702
-0.000798736
-0.000825569
-0.000868551
-0.000935289
-0.00103709
-7.44841e-05
-9.21883e-05
-0.000109905
-0.00012754
-0.000144994
-0.000162205
-0.000179207
-0.000196043
-0.000212709
-0.000229174
-0.000245403
-0.000261371
-0.000277066
-0.000292475
-0.000307587
-0.000322391
-0.000336879
-0.000351043
-0.000364879
-0.000378387
-0.000391568
-0.000404427
-0.000416971
-0.000429211
-0.000441162
-0.000452839
-0.000464261
-0.00047543
-0.00048634
-0.000496991
-0.000507397
-0.000517583
-0.000527583
-0.000537435
-0.000547172
-0.000556825
-0.000566416
-0.000575963
-0.000585475
-0.000594959
-0.000604426
-0.00061389
-0.000623362
-0.000632851
-0.000642358
-0.000651883
-0.000661417
-0.00067095
-0.000680463
-0.000689924
-0.000699291
-0.000708502
-0.000717474
-0.000726098
-0.000734236
-0.00074172
-0.000748361
-0.000753953
-0.000758306
-0.000761285
-0.000762895
-0.000763401
-0.00076355
-0.000764891
-0.000770386
-0.000784909
-0.000816316
-0.000872811
-0.000963966
-0.000101852
-0.000120361
-0.000138851
-0.000157225
-0.000175381
-0.000193256
-0.000210881
-0.000228301
-0.000245511
-0.000262476
-0.000279157
-0.00029553
-0.000311577
-0.000327285
-0.000342643
-0.00035764
-0.000372265
-0.000386511
-0.000400375
-0.000413858
-0.000426962
-0.000439694
-0.000452065
-0.00046409
-0.000475785
-0.000487172
-0.000498268
-0.000509073
-0.000519587
-0.000529822
-0.000539804
-0.000549568
-0.000559157
-0.000568614
-0.000577974
-0.000587271
-0.000596527
-0.000605761
-0.00061498
-0.000624193
-0.000633411
-0.000642646
-0.000651909
-0.000661205
-0.000670535
-0.000679897
-0.000689281
-0.000698674
-0.000708052
-0.000717377
-0.000726592
-0.000735615
-0.000744328
-0.000752573
-0.000760142
-0.000766765
-0.000772109
-0.000775777
-0.000777323
-0.000776291
-0.000772289
-0.000765148
-0.000755218
-0.000743873
-0.000734456
-0.000733066
-0.000749851
-0.000794556
-0.000881518
-0.000132671
-0.000152038
-0.000171351
-0.000190508
-0.000209406
-0.000227978
-0.000246255
-0.00026428
-0.000282049
-0.000299522
-0.000316659
-0.000333429
-0.000349814
-0.0003658
-0.000381373
-0.000396522
-0.000411234
-0.000425505
-0.00043933
-0.000452712
-0.000465654
-0.000478168
-0.000490267
-0.00050197
-0.000513299
-0.000524279
-0.000534923
-0.000545234
-0.000555223
-0.000564917
-0.000574354
-0.000583583
-0.000592653
-0.000601613
-0.000610504
-0.00061936
-0.000628207
-0.00063706
-0.000645928
-0.000654821
-0.000663749
-0.000672724
-0.000681753
-0.00069084
-0.000699986
-0.000709188
-0.000718441
-0.000727731
-0.000737034
-0.00074631
-0.000755495
-0.000764492
-0.000773159
-0.000781294
-0.000788622
-0.000794767
-0.000799242
-0.000801419
-0.000800528
-0.000795667
-0.000785876
-0.000770334
-0.000748811
-0.000722506
-0.000695516
-0.000676014
-0.00067694
-0.000710448
-0.000790865
-0.000167435
-0.000187717
-0.000207902
-0.000227887
-0.000247566
-0.000266866
-0.000285817
-0.000304465
-0.000322802
-0.000340786
-0.000358369
-0.00037552
-0.000392215
-0.00040844
-0.00042418
-0.000439419
-0.000454148
-0.000468359
-0.00048205
-0.000495223
-0.000507886
-0.000520053
-0.000531741
-0.000542974
-0.000553781
-0.000564188
-0.000574207
-0.000583853
-0.000593154
-0.000602154
-0.000610907
-0.000619474
-0.000627912
-0.000636278
-0.000644615
-0.00065296
-0.000661338
-0.000669764
-0.000678244
-0.000686789
-0.000695407
-0.000704106
-0.000712891
-0.000721765
-0.000730729
-0.000739785
-0.000748933
-0.000758167
-0.000767469
-0.000776807
-0.000786121
-0.000795313
-0.000804233
-0.000812661
-0.000820273
-0.000826615
-0.000831046
-0.000832689
-0.00083037
-0.000822592
-0.0008076
-0.000783675
-0.00074989
-0.000707574
-0.000662494
-0.000625839
-0.000613093
-0.000637361
-0.000711341
-0.000206817
-0.000228086
-0.000249214
-0.000270089
-0.000290606
-0.000310685
-0.000330355
-0.00034966
-0.000368593
-0.000387105
-0.000405145
-0.000422673
-0.000439667
-0.000456106
-0.000471973
-0.000487254
-0.000501935
-0.000516009
-0.000529475
-0.000542336
-0.000554603
-0.000566292
-0.000577429
-0.000588043
-0.000598167
-0.000607823
-0.00061703
-0.000625819
-0.000634239
-0.000642352
-0.00065023
-0.000657948
-0.000665577
-0.000673181
-0.000680812
-0.000688508
-0.000696296
-0.000704189
-0.000712195
-0.00072032
-0.000728569
-0.000736944
-0.000745446
-0.000754076
-0.00076284
-0.000771744
-0.000780798
-0.000790009
-0.000799376
-0.000808884
-0.000818496
-0.000828138
-0.00083769
-0.000846955
-0.000855626
-0.000863219
-0.00086898
-0.000871766
-0.000869902
-0.000861088
-0.000842482
-0.000811247
-0.000765997
-0.000709153
-0.000649156
-0.000599989
-0.000577709
-0.000594658
-0.000661773
-0.000251336
-0.000273647
-0.00029576
-0.000317563
-0.000338945
-0.000359821
-0.000380219
-0.000400182
-0.000419699
-0.000438718
-0.000457179
-0.000475038
-0.000492267
-0.000508843
-0.000524746
-0.000539956
-0.000554461
-0.000568251
-0.000581325
-0.000593688
-0.000605353
-0.000616342
-0.000626686
-0.000636422
-0.000645587
-0.000654209
-0.000662329
-0.000670001
-0.000677301
-0.000684314
-0.000691133
-0.000697848
-0.000704545
-0.000711294
-0.000718154
-0.000725165
-0.00073235
-0.000739716
-0.000747267
-0.000755
-0.000762909
-0.000770986
-0.000779226
-0.00078763
-0.000796207
-0.000804974
-0.000813955
-0.000823177
-0.000832665
-0.000842438
-0.00085251
-0.000862877
-0.00087351
-0.00088432
-0.000895103
-0.000905435
-0.000914494
-0.000920827
-0.000922073
-0.000914819
-0.000894906
-0.000858658
-0.000805141
-0.000738629
-0.000669824
-0.000614057
-0.000586828
-0.00059797
-0.000656852
-0.000302448
-0.000325931
-0.000349167
-0.000372026
-0.000394392
-0.000416177
-0.000437402
-0.000458111
-0.000478291
-0.000497879
-0.000516811
-0.000535035
-0.000552515
-0.000569226
-0.000585142
-0.000600243
-0.00061451
-0.000627935
-0.000640515
-0.000652257
-0.000663178
-0.000673305
-0.000682675
-0.000691325
-0.000699288
-0.000706606
-0.000713341
-0.000719576
-0.000725415
-0.000730973
-0.000736371
-0.000741724
-0.000747138
-0.000752703
-0.000758488
-0.000764541
-0.000770883
-0.000777521
-0.000784446
-0.000791642
-0.000799085
-0.000806752
-0.000814628
-0.000822713
-0.000831022
-0.000839586
-0.000848448
-0.00085766
-0.00086728
-0.000877378
-0.000888047
-0.000899406
-0.000911596
-0.000924729
-0.000938804
-0.000953514
-0.000967939
-0.00098013
-0.000986776
-0.000983329
-0.000964852
-0.000927591
-0.000871346
-0.000801844
-0.000731621
-0.000676289
-0.000650134
-0.000659533
-0.000707575
-0.000359496
-0.000384159
-0.000408487
-0.000432366
-0.000455679
-0.000478325
-0.000500323
-0.000521715
-0.000542483
-0.000562555
-0.000581857
-0.000600327
-0.000617923
-0.00063461
-0.000650357
-0.000665138
-0.000678931
-0.00069172
-0.000703502
-0.000714284
-0.000724086
-0.00073294
-0.000740893
-0.000747991
-0.000754285
-0.000759848
-0.00076478
-0.000769203
-0.000773258
-0.000777098
-0.000780875
-0.000784738
-0.000788815
-0.000793216
-0.000798019
-0.000803266
-0.000808969
-0.000815115
-0.000821664
-0.000828563
-0.000835753
-0.000843183
-0.000850827
-0.000858688
-0.000866801
-0.000875227
-0.00088404
-0.000893322
-0.000903168
-0.000913701
-0.00092509
-0.000937601
-0.000951587
-0.000967408
-0.000985271
-0.00100492
-0.00102517
-0.00104356
-0.00105628
-0.00105836
-0.00104434
-0.00101032
-0.000957308
-0.000893098
-0.00083149
-0.000788394
-0.000772062
-0.000783014
-0.000817321
-0.000428096
-0.000454206
-0.000479969
-0.000505185
-0.000529729
-0.000553498
-0.000576507
-0.000598797
-0.000620344
-0.000641069
-0.000660885
-0.000679722
-0.000697527
-0.000714259
-0.00072988
-0.000744355
-0.000757655
-0.000769762
-0.000780669
-0.000790381
-0.000798918
-0.000806308
-0.000812588
-0.0008178
-0.000822014
-0.000825332
-0.000827889
-0.00082985
-0.000831404
-0.000832753
-0.000834102
-0.000835651
-0.000837583
-0.000840049
-0.000843161
-0.000846979
-0.00085151
-0.000856715
-0.000862507
-0.000868773
-0.000875401
-0.000882305
-0.00088945
-0.000896868
-0.000904638
-0.000912863
-0.00092163
-0.000931017
-0.00094111
-0.000952019
-0.000963885
-0.000977023
-0.000991932
-0.00100905
-0.00102871
-0.00105089
-0.00107477
-0.00109819
-0.00111689
-0.00112464
-0.00111555
-0.00108735
-0.00104379
-0.0009959
-0.000958666
-0.00094156
-0.000942989
-0.00095787
-0.000982766
-0.000499254
-0.000526783
-0.000553754
-0.000580114
-0.000605735
-0.000630485
-0.000654367
-0.000677412
-0.000699588
-0.000720801
-0.00074095
-0.000759947
-0.000777726
-0.000794233
-0.000809416
-0.00082323
-0.000835633
-0.000846598
-0.000856107
-0.000864164
-0.000870792
-0.000876026
-0.000879914
-0.000882527
-0.000883978
-0.000884421
-0.00088405
-0.000883093
-0.000881806
-0.000880457
-0.000879324
-0.000878671
-0.00087874
-0.000879728
-0.000881772
-0.000884929
-0.00088917
-0.000894373
-0.000900334
-0.000906812
-0.000913583
-0.000920509
-0.000927588
-0.000934952
-0.000942808
-0.000951304
-0.000960457
-0.000970223
-0.000980607
-0.000991541
-0.00100273
-0.00101433
-0.00102708
-0.00104159
-0.00105905
-0.00108107
-0.00110732
-0.0011342
-0.00115532
-0.0011643
-0.00115806
-0.00113818
-0.00111218
-0.00109229
-0.0010893
-0.00110447
-0.00112826
-0.00115027
-0.00117071
-0.00059749
-0.000626661
-0.000655485
-0.000683531
-0.000710663
-0.00073678
-0.000761892
-0.000786026
-0.00080914
-0.000831131
-0.000851876
-0.000871272
-0.000889236
-0.000905696
-0.000920586
-0.000933846
-0.000945418
-0.000955259
-0.000963331
-0.000969613
-0.000974093
-0.000976777
-0.000977702
-0.000976948
-0.000974646
-0.000970985
-0.000966214
-0.000960637
-0.000954608
-0.000948521
-0.000942793
-0.000937842
-0.000934059
-0.000931775
-0.000931226
-0.000932513
-0.000935563
-0.000940103
-0.000945685
-0.000951771
-0.00095789
-0.000963817
-0.000969688
-0.000975961
-0.000983168
-0.000991439
-0.0010003
-0.00100923
-0.00101821
-0.00102694
-0.00103405
-0.00103989
-0.00104735
-0.0010584
-0.00107475
-0.00109746
-0.00112334
-0.00114648
-0.0011622
-0.00116824
-0.00116494
-0.00115661
-0.00115201
-0.00116101
-0.00118897
-0.00123188
-0.0012764
-0.00130876
-0.00132789
-0.000680419
-0.000711854
-0.000742249
-0.000771822
-0.000800432
-0.000827885
-0.000854158
-0.000879278
-0.000903201
-0.000925809
-0.000946961
-0.00096653
-0.000984411
-0.00100051
-0.00101473
-0.001027
-0.00103724
-0.00104541
-0.00105147
-0.00105538
-0.00105714
-0.00105675
-0.00105428
-0.00104983
-0.00104357
-0.00103572
-0.00102657
-0.00101649
-0.00100591
-0.000995388
-0.000985514
-0.000976924
-0.000970242
-0.000966028
-0.000964701
-0.000966445
-0.000971101
-0.000978075
-0.00098633
-0.000994562
-0.00100166
-0.00100716
-0.00101146
-0.00101576
-0.00102135
-0.00102817
-0.00103411
-0.00103778
-0.00104039
-0.00104345
-0.00104531
-0.00104729
-0.00105425
-0.0010673
-0.00108418
-0.00110226
-0.00111976
-0.00113404
-0.00114305
-0.00114645
-0.00114641
-0.00114832
-0.00115967
-0.00118692
-0.00123184
-0.0012885
-0.00134359
-0.00138228
-0.00139965
-0.000829546
-0.000862292
-0.000895
-0.000926734
-0.000957267
-0.000986476
-0.00101435
-0.00104089
-0.00106604
-0.00108965
-0.00111156
-0.00113163
-0.00114972
-0.00116567
-0.00117934
-0.00119055
-0.00119919
-0.00120511
-0.00120821
-0.0012084
-0.00120565
-0.00119997
-0.00119144
-0.00118024
-0.00116662
-0.0011509
-0.00113349
-0.00111486
-0.00109555
-0.00107627
-0.00105785
-0.00104122
-0.00102742
-0.00101748
-0.0010123
-0.00101252
-0.00101816
-0.00102828
-0.00104072
-0.00105233
-0.0010603
-0.00106339
-0.00106218
-0.0010591
-0.00105739
-0.00105799
-0.00105727
-0.00105351
-0.00104981
-0.00105006
-0.00105389
-0.00105933
-0.00106593
-0.00107432
-0.00108456
-0.00109526
-0.00110469
-0.00111109
-0.00111362
-0.00111319
-0.0011128
-0.00111754
-0.00113326
-0.0011647
-0.00121279
-0.00127186
-0.00133007
-0.0013736
-0.0013938
-0.000923585
-0.000959582
-0.000993644
-0.00102697
-0.00105932
-0.00109028
-0.00111976
-0.00114775
-0.00117418
-0.00119886
-0.00122161
-0.00124233
-0.00126096
-0.00127739
-0.00129147
-0.00130297
-0.00131162
-0.00131717
-0.00131937
-0.00131802
-0.00131294
-0.001304
-0.0012911
-0.00127421
-0.00125343
-0.00122907
-0.00120158
-0.00117163
-0.00114009
-0.00110808
-0.00107694
-0.00104829
-0.00102398
-0.00100591
-0.000995856
-0.000995075
-0.00100382
-0.00102065
-0.00104162
-0.00106066
-0.00107319
-0.0010778
-0.00107555
-0.00106982
-0.00106539
-0.00106488
-0.00106687
-0.00106858
-0.00106892
-0.00106882
-0.00106963
-0.00107125
-0.00107362
-0.00107696
-0.00108097
-0.00108468
-0.00108667
-0.00108571
-0.00108152
-0.0010753
-0.00107024
-0.00107138
-0.00108447
-0.00111376
-0.00115911
-0.00121583
-0.00127449
-0.00132274
-0.00134994
-0.00114637
-0.00118525
-0.00122411
-0.00126114
-0.00129606
-0.00132911
-0.00136045
-0.00139004
-0.00141768
-0.00144306
-0.00146587
-0.00148574
-0.00150234
-0.00151543
-0.00152493
-0.00153079
-0.001533
-0.00153152
-0.00152623
-0.00151697
-0.00150353
-0.00148567
-0.00146316
-0.00143586
-0.00140371
-0.00136683
-0.00132563
-0.00128089
-0.00123378
-0.00118579
-0.00113875
-0.00109477
-0.00105619
-0.00102533
-0.00100428
-0.000994532
-0.000996489
-0.0010089
-0.001028
-0.00104776
-0.00106337
-0.00107325
-0.00107742
-0.00107694
-0.00107422
-0.00107216
-0.00107222
-0.00107314
-0.00107396
-0.00107464
-0.0010754
-0.00107611
-0.00107672
-0.00107729
-0.00107743
-0.00107634
-0.00107304
-0.00106662
-0.00105673
-0.00104474
-0.00103475
-0.0010325
-0.00104193
-0.00106467
-0.00110346
-0.00115691
-0.00121589
-0.00126614
-0.00129798
0.000525308
0.000529702
0.000534162
0.000538757
0.000543506
0.000548473
0.000553613
0.000558707
0.00056375
0.000568889
0.000574106
0.000579214
0.000584084
0.000589219
0.000593616
0.000597583
0.000600497
0.000603567
0.000605693
0.000607238
0.000608178
0.000607351
0.000605472
0.000602187
0.000597846
0.000592131
0.000584547
0.000575823
0.000565875
0.000554505
0.000541042
0.000526762
0.000511631
0.000495616
0.000477794
0.000459553
0.000440928
0.000421806
0.000402648
0.000383464
0.000364088
0.000344883
0.000326508
0.000308756
0.000290549
0.000273544
0.00025676
0.000241294
0.000226398
0.000212281
0.000199003
0.000186466
0.000174776
0.00016401
0.000153926
0.000144135
0.000135397
0.000127189
0.000119709
0.000530339
0.000534972
0.000539776
0.000544706
0.000549787
0.000555029
0.000560406
0.000565844
0.000571326
0.00057688
0.000582438
0.000587866
0.000593115
0.000598285
0.000603124
0.000607436
0.000611093
0.000614416
0.000616901
0.000618505
0.000619362
0.000618813
0.000617009
0.000613872
0.000609508
0.000603498
0.000595958
0.000586847
0.000576607
0.000564682
0.000551018
0.000536251
0.000520663
0.000503721
0.000485605
0.000466765
0.000447446
0.000427582
0.000407629
0.000387583
0.000367358
0.00034753
0.000328258
0.000309134
0.000290683
0.000272818
0.000255735
0.000239579
0.000224104
0.000209371
0.000195521
0.000182539
0.000170311
0.000158932
0.000148195
0.000138315
0.000129252
0.000120928
0.000113302
0.000535518
0.000540439
0.000545537
0.000550811
0.000556248
0.000561836
0.000567548
0.00057336
0.000579255
0.00058521
0.000591147
0.000596964
0.000602604
0.00060806
0.000613244
0.000618032
0.000622314
0.000625952
0.00062868
0.000630543
0.00063142
0.000631156
0.000629485
0.000626364
0.000621889
0.000615741
0.000608031
0.00059875
0.000587999
0.000575691
0.000561729
0.000546472
0.000530042
0.000512391
0.000493648
0.000474138
0.00045404
0.000433461
0.000412624
0.000391695
0.00037079
0.000350074
0.000329705
0.000309903
0.000290734
0.000272295
0.000254605
0.000237681
0.000221544
0.000206243
0.000191843
0.000178318
0.000165639
0.00015376
0.000142743
0.000132575
0.000123193
0.000114548
0.000106594
0.000540657
0.000545872
0.000551287
0.000556903
0.000562701
0.000568665
0.000574772
0.000580999
0.000587317
0.000593689
0.000600052
0.000606331
0.00061246
0.00061837
0.000623959
0.000629148
0.000633811
0.000637778
0.000640855
0.000643055
0.000644165
0.000644064
0.000642508
0.000639413
0.000634853
0.000628608
0.00062071
0.000611198
0.000600026
0.000587314
0.000572913
0.000557076
0.000539899
0.000521542
0.000502062
0.000481753
0.000460811
0.000439383
0.000417646
0.000395806
0.000374039
0.000352481
0.000331291
0.000310707
0.000290751
0.000271528
0.000253081
0.000235443
0.000218666
0.000202785
0.000187828
0.000173789
0.000160657
0.000148406
0.000137024
0.000126478
0.000116728
0.000107726
9.94601e-05
0.000545869
0.000551407
0.000557161
0.000563132
0.000569302
0.000575656
0.000582174
0.000588827
0.000595583
0.0006024
0.00060922
0.000615977
0.000622595
0.000628982
0.000635027
0.00064063
0.000645671
0.000650004
0.000653463
0.000655992
0.000657364
0.000657426
0.000655991
0.00065295
0.000648333
0.00064199
0.000633916
0.000624141
0.0006126
0.000599431
0.000584513
0.000568061
0.000550191
0.000531074
0.000510801
0.000489625
0.000467773
0.000445417
0.000422742
0.000399959
0.000377261
0.000354821
0.000332789
0.000311325
0.000290515
0.000270449
0.000251202
0.00023283
0.000215374
0.000198863
0.000183312
0.000168719
0.00015507
0.000142342
0.000130507
0.000119537
0.000109403
0.000100054
9.14796e-05
0.000551252
0.000557136
0.000563251
0.000569599
0.000576164
0.00058293
0.000589875
0.000596973
0.000604186
0.000611471
0.000618767
0.000626005
0.000633107
0.000639976