/*--------------------------------*- C++ -*----------------------------------*\
| =========                 |                                                 |
| \\      /  F ield         | OpenFOAM: The Open Source CFD Toolbox           |
|  \\    /   O peration     | Version:  2312                                  |
|   \\  /    A nd           | Website:  www.openfoam.com                      |
|    \\/     M anipulation  |                                                 |
\*---------------------------------------------------------------------------*/
FoamFile
{
    version     2.0;
    format      ascii;
    arch        "LSB;label=32;scalar=64";
    class       surfaceScalarField;
    location    "400";
    object      phi;
}
// * * * * * * * * * * * * * * * * * * * * * * * * * * * * * * * * * * * * * //

dimensions      [0 3 -1 0 0 0 0];

oriented        oriented;

internalField   nonuniform List<scalar> 
116611
(
0.00140785
0.00039409
-0.00139209
-0.000409852
0.00142341
0.000388666
-0.000404227
0.00143882
0.000382915
-0.000398327
0.00145407
0.000376803
-0.000392053
0.00146919
0.000370261
-0.000385385
0.00148439
0.000363243
-0.000378441
0.00149875
0.000355805
-0.000370167
0.0015133
0.000347902
-0.000362452
0.00152744
0.000339521
-0.000353661
0.00154152
0.000330699
-0.000344779
0.00155526
0.000321307
-0.000335048
0.00156875
0.000311396
-0.000324886
0.00158192
0.000300937
-0.000314098
0.00159494
0.000289876
-0.000302904
0.00160765
0.00027829
-0.000290994
0.00161997
0.000266209
-0.000278531
0.00163203
0.000253351
-0.000265412
0.0016437
0.000240057
-0.000251728
0.0016548
0.000225906
-0.000236998
0.00166559
0.000211364
-0.000222163
0.00167616
0.000195905
-0.000206469
0.00168628
0.000179889
-0.000190012
0.00169599
0.000163142
-0.000172847
0.00170532
0.0001457
-0.000155039
0.0017141
0.000127522
-0.000136298
0.00172255
0.000108534
-0.000116986
0.00173057
8.86756e-05
-9.6692e-05
0.00173763
6.81473e-05
-7.52122e-05
0.00174461
4.67461e-05
-5.3718e-05
0.00175029
2.45191e-05
-3.02059e-05
0.00175586
1.75716e-06
-7.32544e-06
0.00176098
-2.21889e-05
1.70727e-05
0.00176533
-4.69319e-05
4.25754e-05
0.00176895
-7.24399e-05
6.88258e-05
0.00177172
-9.90308e-05
9.62559e-05
0.00177375
-0.000126349
0.000124322
0.00177534
-0.00015476
0.000153165
0.00177635
-0.000183927
0.000182924
0.00177666
-0.000214078
0.000213761
0.00177594
-0.000245414
0.000246137
0.0017745
-0.000277506
0.000278946
0.00177276
-0.000310653
0.000312397
0.00177052
-0.000344703
0.000346941
0.00176705
-0.000379875
0.000383341
0.00176298
-0.000416041
0.000420118
0.00175818
-0.000453186
0.000457986
0.00175314
-0.000491304
0.00049634
0.00174677
-0.000530623
0.000536995
0.00173985
-0.00057096
0.000577877
0.00173212
-0.000612322
0.000620057
0.00172358
-0.000654735
0.000663273
0.00171468
-0.000698074
0.000706972
0.00170527
-0.000742515
0.000751927
0.00169511
-0.000788166
0.000798324
0.00168409
-0.00083487
0.000845895
0.00167265
-0.000882637
0.000894076
0.00166072
-0.000931546
0.000943471
0.00164833
-0.000981578
0.000993973
0.00163558
-0.00103257
0.00104532
0.00162269
-0.00108428
0.00109718
0.00160981
-0.00113687
0.00114974
0.00159723
-0.00119066
0.00120324
0.00158435
-0.00124539
0.00125827
0.00157203
-0.00130073
0.00131305
0.00156018
-0.0013565
0.00136836
0.00154828
-0.00141302
0.00142492
0.00153904
-0.00146951
0.00147874
0.00153247
-0.00152532
0.00153189
-0.00158666
0.00152284
0.00159629
0.00139241
0.000378393
-0.00137671
0.00140792
0.000373157
0.00142325
0.000367581
0.00143843
0.000361625
0.00145347
0.000355224
0.00146828
0.000348427
0.00148288
0.000341209
0.00149725
0.00033353
0.00151137
0.000325398
0.00152531
0.000316768
0.00153898
0.000307637
0.00155238
0.000297996
0.00156549
0.000287823
0.00157827
0.000277091
0.00159073
0.000265837
0.00160295
0.000253985
0.00161475
0.000241553
0.00162629
0.00022851
0.00163734
0.000214859
0.00164815
0.00020056
0.00165846
0.000185592
0.00166838
0.000169968
0.00167787
0.000153653
0.00168694
0.000136628
0.00169559
0.000118876
0.00170377
0.000100348
0.00171138
8.10702e-05
0.0017185
6.1026e-05
0.00172507
4.01764e-05
0.00173104
1.8548e-05
0.00173671
-3.9071e-06
0.0017417
-2.71832e-05
0.00174605
-5.12831e-05
0.00174985
-7.62411e-05
0.00175295
-0.000102126
0.00175549
-0.000128897
0.00175733
-0.000156592
0.00175856
-0.000185157
0.00175916
-0.000214678
0.00175895
-0.000245212
0.00175814
-0.000276688
0.0017566
-0.000309116
0.00175438
-0.000342482
0.0017514
-0.000376894
0.0017477
-0.000412345
0.00174331
-0.000448793
0.00173824
-0.000486237
0.00173238
-0.000524764
0.0017258
-0.000564378
0.0017185
-0.00060502
0.00171048
-0.000646717
0.00170186
-0.000689459
0.00169263
-0.000733284
0.00168274
-0.000778269
0.00167228
-0.000824414
0.00166134
-0.000871691
0.00164987
-0.00092008
0.00163791
-0.00096962
0.00162557
-0.00102023
0.00161315
-0.00107186
0.0016008
-0.00112453
0.00158846
-0.00117832
0.00157625
-0.00123318
0.00156446
-0.00128895
0.00155346
-0.00134551
0.00154321
-0.00140276
0.00153424
-0.00146054
0.00152669
-0.00151777
-0.00157955
0.00151958
0.00137774
0.000362794
-0.00136214
0.00139318
0.000357718
0.00140845
0.00035231
0.00142355
0.000346524
0.00143844
0.000340334
0.00145314
0.000333731
0.00146765
0.000326702
0.00148194
0.000319236
0.00149602
0.000311322
0.00150985
0.000302937
0.00152342
0.000294068
0.00153671
0.000284699
0.00154972
0.000274817
0.00156241
0.000264403
0.0015748
0.000253445
0.00158686
0.000241922
0.00159859
0.000229825
0.00160997
0.000217133
0.00162099
0.000203835
0.00163164
0.00018991
0.00164189
0.000175346
0.00165173
0.000160124
0.00166116
0.000144225
0.00167016
0.00012763
0.00167871
0.000110323
0.00168677
9.22838e-05
0.00169435
7.34972e-05
0.00170143
5.39437e-05
0.001708
3.3611e-05
0.00171406
1.24842e-05
0.00171961
-9.45615e-06
0.00172458
-3.21562e-05
0.00172899
-5.56915e-05
0.00173283
-8.00851e-05
0.00173606
-0.000105356
0.00173868
-0.000131513
0.00174065
-0.000158563
0.00174201
-0.000186516
0.00174273
-0.000215399
0.00174276
-0.000245238
0.0017421
-0.000276029
0.00174075
-0.000307768
0.00173874
-0.000340476
0.00173604
-0.00037419
0.00173261
-0.000408917
0.00172847
-0.000444652
0.00172364
-0.000481407
0.0017181
-0.000519219
0.00171182
-0.000558102
0.00170485
-0.000598045
0.00169719
-0.000639062
0.0016889
-0.000681173
0.00168002
-0.000724397
0.00167053
-0.00076878
0.00166045
-0.000814338
0.00164983
-0.00086107
0.00163873
-0.000908978
0.0016272
-0.000958092
0.00161537
-0.0010084
0.00160338
-0.00105987
0.0015914
-0.00111254
0.00157953
-0.00116645
0.00156794
-0.00122159
0.00155686
-0.00127787
0.00154655
-0.00133519
0.0015372
-0.00139341
0.00152918
-0.00145253
0.00152275
-0.00151133
-0.00157442
0.00151762
0.00136394
0.000347362
-0.0013485
0.00137923
0.000342419
0.00139438
0.000337164
0.00140936
0.000331545
0.00142415
0.000325541
0.00143875
0.000319134
0.00145314
0.000312311
0.00146732
0.00030506
0.00148127
0.000297368
0.00149499
0.000289222
0.00150845
0.000280605
0.00152165
0.000271503
0.00153456
0.0002619
0.00154718
0.000251781
0.0015595
0.000241129
0.00157149
0.000229931
0.00158315
0.00021817
0.00159445
0.000205829
0.00160539
0.000192891
0.00161596
0.000179342
0.00162614
0.000165165
0.00163592
0.000150342
0.00164529
0.000134857
0.00165423
0.000118691
0.00166273
0.000101827
0.00167076
8.42473e-05
0.00167833
6.5931e-05
0.00168541
4.6863e-05
0.00169199
2.70277e-05
0.00169807
6.40767e-06
0.00170361
-1.49944e-05
0.00170861
-3.71589e-05
0.00171306
-6.01412e-05
0.00171694
-8.39651e-05
0.00172023
-0.000108645
0.00172291
-0.000134197
0.00172498
-0.000160632
0.00172643
-0.000187965
0.00172725
-0.000216212
0.0017274
-0.000245392
0.00172689
-0.000275515
0.00172571
-0.00030659
0.00172386
-0.000338631
0.00172133
-0.000371659
0.0017181
-0.000405689
0.00171418
-0.000440733
0.00170958
-0.000476803
0.00170428
-0.000513922
0.00169829
-0.000552106
0.00169161
-0.000591367
0.00168426
-0.000631718
0.00167627
-0.000673182
0.00166766
-0.000715783
0.00165843
-0.000759553
0.00164862
-0.000804522
0.00163826
-0.000850712
0.00162743
-0.000898144
0.00161618
-0.00094685
0.00160464
-0.000996854
0.00159295
-0.00104818
0.00158127
-0.00110086
0.00156976
-0.00115494
0.0015586
-0.00121044
0.00154804
-0.0012673
0.00153834
-0.00132549
0.00152977
-0.00138485
0.00152265
-0.0014454
0.00151719
-0.00150587
-0.00157081
0.00151358
0.00135114
0.00033212
-0.0013359
0.00136626
0.000327301
0.00138123
0.000322185
0.00139606
0.000316722
0.00141071
0.000310887
0.00142518
0.000304667
0.00143944
0.000298045
0.0014535
0.000291008
0.00146732
0.000283541
0.00148091
0.000275631
0.00149426
0.000267263
0.00150734
0.000258422
0.00152014
0.000249093
0.00153266
0.000239262
0.00154488
0.000228913
0.00155678
0.000218031
0.00156835
0.000206599
0.00157958
0.000194601
0.00159045
0.000182021
0.00160095
0.000168843
0.00161106
0.000155048
0.00162078
0.000140622
0.00163009
0.000125546
0.00163898
0.000109803
0.00164744
9.33751e-05
0.00165544
7.62442e-05
0.00166298
5.83924e-05
0.00167004
3.9803e-05
0.00167661
2.04584e-05
0.00168268
3.37527e-07
0.00168821
-2.0528e-05
0.00169321
-4.21636e-05
0.00169767
-6.4601e-05
0.00170157
-8.7864e-05
0.0017049
-0.00011197
0.00170763
-0.000136933
0.00170977
-0.000162769
0.0017113
-0.000189493
0.00171221
-0.000217119
0.00171248
-0.000245664
0.00171211
-0.000275143
0.00171108
-0.000305566
0.0017094
-0.00033695
0.00170705
-0.000369311
0.00170403
-0.000402666
0.00170033
-0.000437031
0.00169594
-0.00047242
0.00169088
-0.000508852
0.00168512
-0.000546348
0.00167867
-0.000584924
0.00167156
-0.0006246
0.00166378
-0.000665402
0.00165535
-0.000707359
0.00164631
-0.000750507
0.00163667
-0.000794882
0.00162648
-0.000840524
0.00161581
-0.000887473
0.00160474
-0.00093578
0.00159338
-0.000985496
0.00158188
-0.00103668
0.0015704
-0.00108938
0.00155912
-0.00114367
0.00154826
-0.00119958
0.00153807
-0.00125712
0.00152884
-0.00131626
0.00152087
-0.00137688
0.00151451
-0.00143904
0.00151004
-0.0015014
-0.00156882
0.00150804
0.00133925
0.000317027
-0.00132416
0.00135421
0.00031234
0.00136903
0.000307368
0.00138369
0.000302058
0.00139819
0.000296389
0.00141251
0.000290348
0.00142663
0.000283919
0.00144055
0.00027709
0.00145425
0.000269844
0.00146771
0.000262168
0.00148093
0.000254047
0.00149389
0.000245466
0.00150657
0.00023641
0.00151897
0.000226864
0.00153107
0.000216814
0.00154285
0.000206242
0.00155432
0.000195134
0.00156545
0.000183474
0.00157622
0.000171244
0.00158664
0.000158429
0.00159667
0.000145012
0.00160632
0.000130976
0.00161556
0.000116303
0.00162439
0.000100976
0.00163279
8.4977e-05
0.00164074
6.82889e-05
0.00164824
5.08938e-05
0.00165527
3.27737e-05
0.00166182
1.39111e-05
0.00166787
-5.71558e-06
0.0016734
-2.60576e-05
0.00167841
-4.71698e-05
0.00168288
-6.9074e-05
0.00168681
-9.179e-05
0.00169017
-0.000115336
0.00169297
-0.000139727
0.00169518
-0.000164979
0.00169679
-0.000191106
0.0016978
-0.000218126
0.00169818
-0.000246051
0.00169794
-0.000274899
0.00169706
-0.000304683
0.00169552
-0.000335418
0.00169333
-0.00036712
0.00169048
-0.000399808
0.00168694
-0.000433497
0.00168273
-0.000468205
0.00167783
-0.00050395
0.00167223
-0.000540755
0.00166595
-0.00057864
0.00165898
-0.000617631
0.00165134
-0.000657758
0.00164303
-0.000699057
0.00163409
-0.000741568
0.00162455
-0.000785339
0.00161445
-0.000830424
0.00160386
-0.000876883
0.00159287
-0.000924786
0.00158158
-0.000974209
0.00157014
-0.00102524
0.00155872
-0.00107796
0.00154752
-0.00113246
0.00153677
-0.00118883
0.00152675
-0.0012471
0.00151778
-0.00130729
0.00151021
-0.00136931
0.00150442
-0.00143325
0.00150072
-0.00149769
-0.00156733
0.00149923
0.00132808
0.000302034
-0.00131309
0.00134293
0.000297492
0.00135763
0.000292673
0.00137216
0.000287525
0.00138652
0.000282028
0.0014007
0.000276168
0.00141469
0.000269933
0.00142847
0.000263308
0.00144203
0.00025628
0.00145537
0.000248835
0.00146845
0.000240958
0.00148129
0.000232634
0.00149385
0.000223848
0.00150613
0.000214586
0.00151811
0.000204831
0.00152978
0.000194568
0.00154114
0.000183781
0.00155216
0.000172454
0.00156283
0.000160571
0.00157315
0.000148114
0.00158309
0.000135068
0.00159265
0.000121416
0.00160181
0.00010714
0.00161057
9.22218e-05
0.0016189
7.66452e-05
0.00162679
6.03918e-05
0.00163424
4.3444e-05
0.00164123
2.57835e-05
0.00164775
7.39239e-06
0.00165377
-1.17372e-05
0.00165929
-3.15754e-05
0.0016643
-5.21736e-05
0.00166878
-7.35547e-05
0.00167272
-9.57357e-05
0.00167612
-0.000118734
0.00167896
-0.000142564
0.00168122
-0.000167244
0.0016829
-0.000192786
0.00168399
-0.000219209
0.00168446
-0.000246525
0.00168431
-0.000274752
0.00168353
-0.000303904
0.00168211
-0.000333996
0.00168004
-0.000365045
0.0016773
-0.000397069
0.00167388
-0.000430083
0.00166979
-0.000464108
0.001665
-0.000499163
0.00165952
-0.000535272
0.00165334
-0.000572461
0.00164647
-0.000610758
0.0016389
-0.000650198
0.00163067
-0.000690824
0.00162179
-0.000732683
0.00161228
-0.000775835
0.0016022
-0.000820345
0.00159161
-0.000866291
0.00158059
-0.000913763
0.00156924
-0.000962864
0.00155771
-0.00101371
0.00154617
-0.00106642
0.00153484
-0.00112112
0.00152396
-0.00117795
0.00151386
-0.001237
0.0015049
-0.00129833
0.00149751
-0.00136191
0.0014921
-0.00142784
0.00148899
-0.00149459
-0.00156601
0.00148767
0.00131752
0.000287119
-0.00130261
0.00133229
0.000282728
0.00134689
0.000278071
0.00136132
0.000273093
0.00137557
0.000267775
0.00138964
0.000262104
0.0014035
0.000256066
0.00141716
0.00024965
0.0014306
0.000242841
0.00144381
0.000235627
0.00145677
0.000227993
0.00146948
0.000219925
0.00148192
0.000211407
0.00149408
0.000202425
0.00150595
0.000192963
0.00151751
0.000183006
0.00152876
0.000172537
0.00153967
0.000161541
0.00155024
0.000150001
0.00156046
0.0001379
0.0015703
0.000125221
0.00157977
0.000111948
0.00158885
9.80629e-05
0.00159752
8.35488e-05
0.00160578
6.83879e-05
0.00161361
5.25623e-05
0.001621
3.60542e-05
0.00162794
1.88453e-05
0.00163441
9.15336e-07
0.00164039
-1.77155e-05
0.00164588
-3.70627e-05
0.00165086
-5.71583e-05
0.00165533
-7.80253e-05
0.00165928
-9.96808e-05
0.00166269
-0.000122141
0.00166554
-0.000145421
0.00166784
-0.000169537
0.00166955
-0.000194504
0.00167068
-0.000220338
0.00167121
-0.000247054
0.00167113
-0.000274667
0.00167042
-0.000303193
0.00166907
-0.000332648
0.00166707
-0.000363047
0.00166441
-0.000394408
0.00166108
-0.00042675
0.00165706
-0.000460091
0.00165235
-0.000494456
0.00164695
-0.000529867
0.00164084
-0.000566353
0.00163403
-0.000603948
0.00162652
-0.000642689
0.00161832
-0.000682625
0.00160945
-0.000723811
0.00159993
-0.000766313
0.00158979
-0.00081021
0.0015791
-0.000855597
0.00156792
-0.000902584
0.00155636
-0.000951302
0.00154455
-0.0010019
0.00153267
-0.00105454
0.00152095
-0.0011094
0.00150967
-0.00116667
0.00149919
-0.00122652
0.00148994
-0.00128908
0.00148243
-0.0013544
0.00147711
-0.00142252
0.00147434
-0.00149182
-0.00156481
0.00147314
0.0013076
0.000272294
-0.00129277
0.00132227
0.000268053
0.00133679
0.000263557
0.00135113
0.000258752
0.00136529
0.000253617
0.00137925
0.000248139
0.00139301
0.000242304
0.00140656
0.000236101
0.00141989
0.000229516
0.00143298
0.000222536
0.00144582
0.000215147
0.00145841
0.000207335
0.00147073
0.000199086
0.00148277
0.000190384
0.00149452
0.000181214
0.00150597
0.00017156
0.0015171
0.000161408
0.0015279
0.000150739
0.00153836
0.000139539
0.00154847
0.00012779
0.00155822
0.000115475
0.00156759
0.000102578
0.00157657
8.90801e-05
0.00158515
7.4965e-05
0.00159333
6.02147e-05
0.00160108
4.48113e-05
0.0016084
2.87371e-05
0.00161527
1.19742e-05
0.00162168
-5.49731e-06
0.0016276
-2.36403e-05
0.00163304
-4.25024e-05
0.00163799
-6.21044e-05
0.00164243
-8.24658e-05
0.00164635
-0.000103604
0.00164975
-0.000125534
0.0016526
-0.000148272
0.00165489
-0.000171834
0.00165662
-0.000196233
0.00165777
-0.000221487
0.00165833
-0.00024761
0.00165828
-0.000274617
0.00165761
-0.000302524
0.00165631
-0.000331347
0.00165436
-0.000361102
0.00165176
-0.000391806
0.00164849
-0.000423478
0.00164454
-0.00045614
0.0016399
-0.000489813
0.00163455
-0.000524523
0.0016285
-0.000560301
0.00162173
-0.000597181
0.00161425
-0.000635205
0.00160605
-0.000674424
0.00159713
-0.000714898
0.00158753
-0.000756703
0.00157724
-0.000799929
0.00156633
-0.000844687
0.00155486
-0.000891108
0.00154291
-0.000939353
0.00153062
-0.000989606
0.00151816
-0.00104208
0.00150577
-0.00109701
0.00149376
-0.00115466
0.00148254
-0.0012153
0.00147261
-0.00127916
0.00146461
-0.0013464
0.00145888
-0.00141679
0.00145556
-0.0014885
-0.0015603
0.00145105
0.0012984
0.000257575
-0.00128368
0.00131297
0.000253481
0.00132738
0.000249145
0.00134162
0.000244512
0.00135568
0.00023956
0.00136954
0.000234275
0.0013832
0.000228646
0.00139665
0.000222658
0.00140986
0.0002163
0.00142284
0.000209557
0.00143557
0.000202417
0.00144804
0.000194864
0.00146024
0.000186885
0.00147216
0.000178464
0.00148379
0.000169587
0.00149511
0.000160237
0.00150612
0.0001504
0.0015168
0.000140058
0.00152715
0.000129196
0.00153714
0.000117797
0.00154677
0.000105843
0.00155603
9.33178e-05
0.00156491
8.0204e-05
0.00157339
6.64838e-05
0.00158146
5.21396e-05
0.00158912
3.71535e-05
0.00159635
2.15078e-05
0.00160314
5.18421e-06
0.00160947
-1.18221e-05
0.00161532
-2.94954e-05
0.0016207
-4.78788e-05
0.00162559
-6.69942e-05
0.00162998
-8.6858e-05
0.00163386
-0.000107487
0.00163722
-0.000128895
0.00164005
-0.0001511
0.00164233
-0.000174116
0.00164406
-0.000197957
0.00164521
-0.00022264
0.00164578
-0.000248178
0.00164575
-0.000274589
0.00164511
-0.000301885
0.00164385
-0.000330084
0.00164195
-0.000359202
0.0016394
-0.000389255
0.00163618
-0.000420263
0.00163229
-0.000452246
0.0016277
-0.000485226
0.00162241
-0.00051923
0.00161639
-0.000554287
0.00160965
-0.000590433
0.00160215
-0.000627711
0.0015939
-0.000666175
0.0015849
-0.000705889
0.00157513
-0.000746935
0.00156461
-0.000789413
0.00155337
-0.000833448
0.00154146
-0.000879194
0.00152894
-0.000926839
0.00151595
-0.000976606
0.00150263
-0.00102876
0.00148923
-0.00108362
0.00147609
-0.00114153
0.0014637
-0.00120291
0.00145268
-0.00126814
0.00144367
-0.0013374
0.00143674
-0.00140986
0.00143076
-0.00148252
-0.00154833
0.00141878
0.00129002
0.000242973
-0.00127542
0.00130447
0.000239026
0.00131877
0.000234849
0.0013329
0.000230387
0.00134684
0.000225617
0.00136059
0.000220526
0.00137413
0.000215101
0.00138746
0.00020933
0.00140056
0.000203199
0.00141343
0.000196695
0.00142604
0.000189805
0.00143839
0.000182513
0.00145047
0.000174806
0.00146226
0.000166669
0.00147376
0.000158086
0.00148496
0.000149041
0.00149584
0.00013952
0.00150639
0.000129506
0.00151661
0.000118981
0.00152647
0.000107931
0.00153598
9.63366e-05
0.00154511
8.41818e-05
0.00155387
7.14489e-05
0.00156223
5.81203e-05
0.00157019
4.41784e-05
0.00157774
2.96052e-05
0.00158487
1.43828e-05
0.00159156
-1.50727e-06
0.00159778
-1.80471e-05
0.00160355
-3.52612e-05
0.00160885
-5.31758e-05
0.00161366
-7.1812e-05
0.00161799
-9.11864e-05
0.00162182
-0.000111314
0.00162514
-0.000132211
0.00162793
-0.000153892
0.00163018
-0.000176371
0.00163189
-0.000199664
0.00163304
-0.000223786
0.00163361
-0.000248751
0.00163359
-0.000274574
0.00163298
-0.000301269
0.00163175
-0.000328853
0.00162988
-0.00035734
0.00162738
-0.000386748
0.00162421
-0.000417094
0.00162036
-0.000448398
0.00161581
-0.000480681
0.00161055
-0.000513968
0.00160456
-0.000548289
0.0015978
-0.000583678
0.00159027
-0.000620179
0.00158194
-0.000657844
0.00157279
-0.00069674
0.0015628
-0.000736952
0.00155198
-0.000778588
0.00154031
-0.000821784
0.00152783
-0.000866711
0.00151457
-0.00091358
0.00150062
-0.000962657
0.00148613
-0.00101427
0.00147133
-0.00106882
0.00145663
-0.00112683
0.00144262
-0.0011889
0.00143001
-0.00125552
0.00141922
-0.00132661
0.00140941
-0.00140005
0.00139658
-0.00146969
-0.00152252
0.00137077
0.00128251
0.000228491
-0.00126803
0.00129685
0.000224692
0.00131102
0.000220676
0.00132502
0.000216385
0.00133884
0.000211798
0.00135247
0.000206901
0.00136589
0.000201681
0.00137909
0.000196127
0.00139206
0.000190225
0.0014048
0.000183961
0.00141728
0.000177322
0.0014295
0.000170293
0.00144145
0.000162859
0.00145311
0.000155007
0.00146448
0.000146719
0.00147554
0.000137982
0.00148628
0.000128778
0.00149669
0.000119091
0.00150677
0.000108905
0.0015165
9.82031e-05
0.00152587
8.6968e-05
0.00153487
7.51823e-05
0.00154349
6.28285e-05
0.00155172
4.9889e-05
0.00155955
3.63461e-05
0.00156697
2.21819e-05
0.00157398
7.37818e-06
0.00158055
-8.07608e-06
0.00158666
-2.41626e-05
0.00159232
-4.0923e-05
0.00159753
-5.83774e-05
0.00160226
-7.65432e-05
0.00160651
-9.54368e-05
0.00161027
-0.000115073
0.00161352
-0.000135467
0.00161627
-0.000156634
0.00161848
-0.000178588
0.00162016
-0.000201343
0.00162129
-0.000224914
0.00162185
-0.000249315
0.00162184
-0.000274561
0.00162124
-0.000300664
0.00162002
-0.000327641
0.00161819
-0.000355505
0.00161571
-0.000384272
0.00161258
-0.000413959
0.00160876
-0.000444583
0.00160425
-0.000476165
0.00159901
-0.000508728
0.00159301
-0.000542297
0.00158624
-0.000576906
0.00157866
-0.000612595
0.00157023
-0.000649413
0.00156092
-0.000687428
0.00155068
-0.000726721
0.0015395
-0.000767403
0.00152733
-0.000809612
0.00151415
-0.00085353
0.00149996
-0.000899388
0.00148479
-0.000947496
0.00146879
-0.000998265
0.00145223
-0.00105226
0.00143559
-0.00111019
0.00141954
-0.00117284
0.00140461
-0.00124059
0.00139025
-0.00131226
0.00137328
-0.00138307
0.00134496
-0.00144137
-0.001473
0.00129545
0.00127594
0.00021413
-0.00126158
0.00129016
0.000210481
0.0013042
0.000206628
0.00131808
0.000202511
0.00133176
0.000198109
0.00134526
0.000193408
0.00135854
0.000188396
0.00137161
0.000183061
0.00138444
0.000177389
0.00139704
0.000171367
0.00140938
0.00016498
0.00142146
0.000158215
0.00143326
0.000151057
0.00144478
0.000143491
0.00145599
0.0001355
0.0014669
0.000127071
0.0014775
0.000118185
0.00148776
0.000108828
0.00149768
9.89808e-05
0.00150726
8.86279e-05
0.00151648
7.77515e-05
0.00152532
6.63341e-05
0.00153379
5.43581e-05
0.00154188
4.18056e-05
0.00154957
2.86589e-05
0.00155685
1.49e-05
0.00156372
5.09995e-07
0.00157014
-1.45024e-05
0.00157613
-3.01508e-05
0.00158167
-4.64656e-05
0.00158676
-6.3467e-05
0.00159139
-8.11709e-05
0.00159555
-9.95927e-05
0.00159922
-0.000118747
0.0016024
-0.000138649
0.00160508
-0.000159312
0.00160724
-0.000180751
0.00160888
-0.000202979
0.00160997
-0.00022601
0.00161052
-0.000249858
0.00161049
-0.000274536
0.00160989
-0.000300058
0.00160868
-0.000326436
0.00160686
-0.000353685
0.00160441
-0.000381819
0.0016013
-0.000410851
0.00159752
-0.000440799
0.00159303
-0.000471679
0.00158781
-0.00050351
0.00158183
-0.000536316
0.00157505
-0.000570123
0.00156742
-0.000604967
0.0015589
-0.000640892
0.00154943
-0.000677956
0.00153894
-0.000716233
0.00152736
-0.000755824
0.00151461
-0.000796862
0.00150061
-0.000839529
0.00148531
-0.000884084
0.00146872
-0.000930906
0.001451
-0.000980547
0.0014325
-0.00103376
0.00141374
-0.00109143
0.00139511
-0.00115421
0.00137604
-0.00122152
0.00135332
-0.00128954
0.00131892
-0.00134868
0.00125875
-0.0013812
-0.00137834
0.00116409
0.00127037
0.000199888
-0.00125613
0.00128446
0.000196394
0.00129838
0.000192708
0.00131212
0.000188769
0.00132567
0.000184555
0.00133903
0.000180054
0.00135217
0.000175253
0.00136509
0.000170139
0.00137778
0.0001647
0.00139023
0.000158923
0.00140241
0.000152792
0.00141434
0.000146294
0.00142598
0.000139413
0.00143733
0.000132136
0.00144839
0.000124445
0.00145913
0.000116326
0.00146956
0.00010776
0.00147965
9.87332e-05
0.00148941
8.92265e-05
0.00149881
7.92233e-05
0.00150786
6.87058e-05
0.00151654
5.76564e-05
0.00152484
4.60571e-05
0.00153275
3.38899e-05
0.00154027
2.11369e-05
0.00154739
7.77985e-06
0.0015541
-6.19541e-06
0.00156037
-2.07727e-05
0.00156621
-3.59906e-05
0.00157161
-5.18688e-05
0.00157657
-6.84253e-05
0.00158108
-8.56759e-05
0.00158512
-0.000103635
0.00158869
-0.000122318
0.00159178
-0.000141738
0.00159438
-0.000161908
0.00159647
-0.000182844
0.00159805
-0.000204556
0.0015991
-0.00022706
0.0015996
-0.000250367
0.00159956
-0.00027449
0.00159894
-0.000299442
0.00159774
-0.000325233
0.00159593
-0.000351878
0.0015935
-0.000379387
0.00159042
-0.000407773
0.00158667
-0.000437049
0.00158222
-0.00046723
0.00157704
-0.000498328
0.00157109
-0.000530362
0.00156432
-0.000563353
0.00155667
-0.000597324
0.00154809
-0.000632308
0.00153848
-0.000668347
0.00152774
-0.000705495
0.00151575
-0.000743833
0.00150237
-0.000783482
0.00148748
-0.000824639
0.00147102
-0.000867625
0.00145306
-0.000912943
0.00143382
-0.00096131
0.00141364
-0.00101358
0.00139263
-0.00107041
0.00136983
-0.00113141
0.00134164
-0.00119334
0.00129935
-0.00124724
0.00122791
-0.00127724
0.00111243
-0.00126573
-0.00122598
0.000960075
0.00126583
0.000185759
-0.0012517
0.0012798
0.000182425
0.0012936
0.00017891
0.00130721
0.000175154
0.00132064
0.000171135
0.00133385
0.000166838
0.00134685
0.000162253
0.00135962
0.000157366
0.00137216
0.000152165
0.00138444
0.000146637
0.00139647
0.000140766
0.00140822
0.000134539
0.0014197
0.000127941
0.00143088
0.000120956
0.00144175
0.000113569
0.00145231
0.000105763
0.00146255
9.75213e-05
0.00147246
8.8827e-05
0.00148202
7.96627e-05
0.00149124
7.00108e-05
0.00150009
5.98533e-05
0.00150857
4.91721e-05
0.00151668
3.7949e-05
0.00152441
2.61658e-05
0.00153174
1.38042e-05
0.00153867
8.45545e-07
0.00154518
-1.27075e-05
0.00155128
-2.68656e-05
0.00155695
-4.16596e-05
0.00156219
-5.71089e-05
0.00156699
-7.32295e-05
0.00157135
-9.00363e-05
0.00157526
-0.000107544
0.00157871
-0.000125766
0.00158169
-0.000144716
0.00158418
-0.000164406
0.00158619
-0.000184851
0.0015877
-0.000206062
0.00158869
-0.000228052
0.00158915
-0.000250832
0.00158908
-0.000274413
0.00158844
-0.000298808
0.00158723
-0.000324026
0.00158544
-0.000350079
0.00158303
-0.000376976
0.00157998
-0.000404727
0.00157627
-0.000433342
0.00157187
-0.000462831
0.00156675
-0.000493202
0.00156085
-0.000524465
0.00155413
-0.000556629
0.00154651
-0.000589704
0.0015379
-0.000623698
0.00152818
-0.000658628
0.00151721
-0.000694522
0.00150482
-0.000731447
0.00149088
-0.000769539
0.0014753
-0.00080906
0.00145812
-0.000850446
0.00143949
-0.000894317
0.00141956
-0.000941377
0.00139804
-0.000992065
0.0013734
-0.00104577
0.00134126
-0.00109927
0.00129221
-0.00114429
0.00120987
-0.0011649
0.00107522
-0.00114259
0.000884427
-0.00107493
-0.00100303
0.000661477
0.00126236
0.000171731
-0.00124833
0.00127622
0.000168564
0.0012899
0.000165228
0.0013034
0.000161661
0.00131669
0.000157842
0.00132977
0.000153757
0.00134263
0.000149394
0.00135526
0.000144741
0.00136764
0.000139785
0.00137976
0.000134512
0.00139162
0.000128909
0.0014032
0.00012296
0.00141449
0.00011665
0.00142548
0.000109964
0.00143616
0.000102886
0.00144653
9.53982e-05
0.00145657
8.74849e-05
0.00146626
7.91281e-05
0.00147562
7.031e-05
0.00148462
6.10126e-05
0.00149325
5.12173e-05
0.00150152
4.09059e-05
0.00150941
3.00595e-05
0.00151691
1.86597e-05
0.00152403
6.68743e-06
0.00153075
-5.87087e-06
0.00153705
-1.90062e-05
0.00154293
-3.27534e-05
0.00154841
-4.71323e-05
0.00155346
-6.21608e-05
0.00155808
-7.78546e-05
0.00156227
-9.4228e-05
0.00156603
-0.000111295
0.00156933
-0.000129068
0.00157217
-0.000147561
0.00157455
-0.000166786
0.00157646
-0.000186754
0.00157787
-0.000207478
0.00157879
-0.000228968
0.00157919
-0.000251236
0.00157907
-0.000274292
0.00157841
-0.000298146
0.00157719
-0.000322806
0.00157539
-0.000348282
0.001573
-0.000374583
0.00156999
-0.000401716
0.00156633
-0.000429687
0.001562
-0.0004585
0.00155696
-0.000488157
0.00155115
-0.000518656
0.0015445
-0.000549986
0.00153694
-0.000582135
0.00152832
-0.000615086
0.00151853
-0.000648835
0.00150742
-0.000683412
0.00149489
-0.00071892
0.00148093
-0.000755577
0.00146562
-0.000793746
0.00144907
-0.0008339
0.00143122
-0.000876465
0.00141127
-0.000921431
0.00138682
-0.000967611
0.0013524
-0.00101135
0.0012976
-0.00104447
0.0012054
-0.00105209
0.00105564
-0.00101513
0.000841598
-0.000928552
0.000593724
-0.000827057
-0.000785659
0.000376349
0.00125997
0.000157797
-0.00124604
0.00127374
0.000154802
0.00128731
0.000151651
0.00130069
0.00014828
0.00131387
0.000144669
0.00132682
0.000140803
0.00133954
0.000136671
0.00135202
0.00013226
0.00136425
0.000127557
0.00137622
0.000122549
0.0013879
0.000117221
0.00139931
0.000111558
0.00141041
0.000105545
0.00142121
9.91659e-05
0.00143169
9.24047e-05
0.00144184
8.5244e-05
0.00145166
7.76663e-05
0.00146114
6.96538e-05
0.00147026
6.11881e-05
0.00147902
5.22504e-05
0.00148742
4.28219e-05
0.00149544
3.28835e-05
0.00150308
2.2416e-05
0.00151034
1.14003e-05
0.00151721
-1.81877e-07
0.00152367
-1.23315e-05
0.00152973
-2.50623e-05
0.00153538
-3.84039e-05
0.00154062
-5.23751e-05
0.00154545
-6.69919e-05
0.00154987
-8.22692e-05
0.00155386
-9.82208e-05
0.00155742
-0.00011486
0.00156055
-0.000132198
0.00156324
-0.000150249
0.00156548
-0.000169023
0.00156726
-0.000188531
0.00156856
-0.000208784
0.00156939
-0.000229792
0.00156971
-0.000251564
0.00156953
-0.000274111
0.00156883
-0.00029744
0.00156758
-0.000321561
0.00156578
-0.000346481
0.0015634
-0.000372207
0.00156043
-0.000398743
0.00155684
-0.000426092
0.00155259
-0.000454248
0.00154763
-0.000483202
0.00154191
-0.000512933
0.00153534
-0.000543413
0.00152782
-0.000574617
0.00151927
-0.000606535
0.00150963
-0.000639199
0.00149894
-0.000672717
0.00148731
-0.000707295
0.00147495
-0.000743215
0.00146194
-0.000780739
0.00144791
-0.000819865
0.00143133
-0.000859893
0.00140864
-0.000898736
0.0013729
-0.000931868
0.00131236
-0.000950814
0.00120958
-0.000941684
0.00104477
-0.00088729
0.000810156
-0.000780513
0.000533758
-0.000652153
0.000286766
-0.000580066
-0.000631508
0.000132616
0.00125874
0.000143955
-0.0012449
0.00127241
0.000141138
0.00128588
0.000138178
0.00129915
0.000135011
0.0013122
0.000131614
0.00132503
0.000127976
0.00133762
0.000124082
0.00134996
0.000119922
0.00136203
0.000115481
0.00137384
0.000110747
0.00138535
0.000105704
0.00139657
0.000100337
0.00140749
9.46317e-05
0.00141808
8.85703e-05
0.00142835
8.21364e-05
0.00143828
7.53123e-05
0.00144787
6.80801e-05
0.0014571
6.0421e-05
0.00146597
5.23161e-05
0.00147448
4.3746e-05
0.00148261
3.46909e-05
0.00149036
2.51311e-05
0.00149773
1.50464e-05
0.00150471
4.41656e-06
0.0015113
-6.76878e-06
0.00151748
-1.85124e-05
0.00152326
-3.08449e-05
0.00152865
-4.37873e-05
0.00153363
-5.73572e-05
0.00153821
-7.15702e-05
0.00154238
-8.64405e-05