/*--------------------------------*- C++ -*----------------------------------*\
| =========                 |                                                 |
| \\      /  F ield         | OpenFOAM: The Open Source CFD Toolbox           |
|  \\    /   O peration     | Version:  2312                                  |
|   \\  /    A nd           | Website:  www.openfoam.com                      |
|    \\/     M anipulation  |                                                 |
\*---------------------------------------------------------------------------*/
FoamFile
{
    version     2.0;
    format      ascii;
    arch        "LSB;label=32;scalar=64";
    class       volVectorField;
    location    "400";
    object      U;
}
// * * * * * * * * * * * * * * * * * * * * * * * * * * * * * * * * * * * * * //

dimensions      [0 1 -1 0 0 0 0];

internalField   nonuniform List<vector> 
76025
(
(0.0428581 -0.0140353 0)
(0.0431194 -0.0140409 9.81797e-22)
(0.0433849 -0.0140385 0)
(0.0436566 -0.0140323 0)
(0.0439211 -0.0140183 -1.80955e-21)
(0.044206 -0.013996 -3.4804e-21)
(0.0444784 -0.0139711 5.9959e-21)
(0.044752 -0.0139361 -2.53569e-21)
(0.0450283 -0.0138986 -8.02131e-22)
(0.0453072 -0.0138571 7.77818e-22)
(0.0455871 -0.013808 8.71802e-24)
(0.0458692 -0.0137509 2.16834e-21)
(0.0461518 -0.0136899 -2.89385e-21)
(0.0464352 -0.0136191 0)
(0.0467312 -0.01354 6.55506e-22)
(0.047015 -0.0134622 0)
(0.0473079 -0.0133702 0)
(0.047595 -0.0132787 0)
(0.0478854 -0.0131726 5.76956e-22)
(0.048167 -0.0130725 -5.38436e-22)
(0.0484542 -0.012957 -5.15166e-22)
(0.0487475 -0.0128339 -1.48166e-21)
(0.0490394 -0.0127056 9.79033e-22)
(0.0493319 -0.0125711 1.3243e-21)
(0.0496243 -0.0124314 -5.23432e-23)
(0.0499113 -0.0122936 3.41944e-22)
(0.0502095 -0.0121317 -1.12995e-21)
(0.0504999 -0.0119735 1.09887e-21)
(0.050788 -0.0118038 -3.37989e-22)
(0.0510746 -0.0116168 3.13452e-22)
(0.0513533 -0.0114359 2.83904e-22)
(0.051635 -0.0112495 -4.63935e-22)
(0.0519241 -0.0110332 6.52852e-22)
(0.0522064 -0.0108322 6.19354e-23)
(0.0524826 -0.0106119 -3.60738e-22)
(0.0527497 -0.0104024 1.65272e-23)
(0.0530166 -0.0101771 4.62234e-23)
(0.0532909 -0.00992204 -1.20166e-23)
(0.0535671 -0.00968364 3.27199e-24)
(0.0538384 -0.00942739 -3.31257e-24)
(0.0541017 -0.00917635 3.81426e-24)
(0.0543675 -0.00890938 -6.34541e-24)
(0.0546469 -0.00861025 1.90068e-23)
(0.0549271 -0.00832403 -5.44446e-23)
(0.0551994 -0.00802298 -7.71248e-23)
(0.0554714 -0.00772299 1.52482e-22)
(0.0557523 -0.00739268 2.09513e-22)
(0.0560405 -0.00706707 -6.74192e-22)
(0.0563229 -0.00673258 4.93018e-22)
(0.0566073 -0.00638697 2.40731e-23)
(0.0568955 -0.00602888 -1.52684e-21)
(0.0571893 -0.00565085 -6.66882e-22)
(0.0574947 -0.00525278 7.43164e-22)
(0.0578084 -0.00483425 0)
(0.0581285 -0.00440466 -8.63408e-22)
(0.058451 -0.0039722 -9.46526e-22)
(0.0587884 -0.00350888 4.99975e-23)
(0.0591378 -0.0030202 -1.04855e-21)
(0.0594926 -0.00249489 1.24222e-21)
(0.0598607 -0.00192542 -3.77305e-21)
(0.0602515 -0.00133702 -2.79376e-21)
(0.0606641 -0.000697921 -4.87236e-23)
(0.0610918 -5.44616e-06 0)
(0.0615268 0.000745826 9.02962e-21)
(0.0619868 0.00157223 -3.81521e-21)
(0.0624576 0.00242648 2.02928e-21)
(0.0629299 0.00342325 -4.59326e-21)
(0.0634116 0.00457619 5.24172e-21)
(0.0641508 0.00575269 1.13753e-20)
(0.0428791 -0.014513 1.02271e-21)
(0.0431562 -0.014518 2.94445e-21)
(0.0434349 -0.0145145 -3.92534e-21)
(0.0437154 -0.014503 0)
(0.0439961 -0.014488 4.53616e-21)
(0.0442817 -0.0144637 -9.17939e-23)
(0.0445686 -0.014435 -3.49688e-21)
(0.0448553 -0.0143987 0)
(0.0451439 -0.0143558 9.33019e-24)
(0.0454334 -0.0143071 -7.91904e-22)
(0.0457253 -0.0142525 7.6691e-22)
(0.0460182 -0.0141911 1.17867e-23)
(0.0463113 -0.0141236 0)
(0.0466043 -0.0140501 0)
(0.0468983 -0.0139667 1.27073e-21)
(0.0471922 -0.0138804 -3.22367e-21)
(0.0474876 -0.0137844 -6.05968e-22)
(0.0477828 -0.0136844 1.73184e-21)
(0.0480787 -0.0135751 -1.15189e-21)
(0.0483732 -0.0134608 5.47472e-22)
(0.0486688 -0.0133385 -4.81715e-22)
(0.0489635 -0.0132092 1.00867e-21)
(0.0492576 -0.0130731 -9.08307e-22)
(0.0495516 -0.0129301 1.31932e-21)
(0.0498458 -0.01278 -8.62957e-22)
(0.0501402 -0.0126238 -1.15944e-21)
(0.0504337 -0.012459 7.62023e-22)
(0.0507244 -0.0122896 0)
(0.0510138 -0.0121118 0)
(0.051301 -0.0119277 2.80807e-22)
(0.0515894 -0.0117346 0)
(0.0518812 -0.011532 2.20167e-22)
(0.0521705 -0.0113232 -1.79766e-22)
(0.0524567 -0.01111 2.5399e-22)
(0.0527409 -0.0108909 8.25042e-24)
(0.0530243 -0.0106631 5.40638e-23)
(0.0533076 -0.0104249 0)
(0.05359 -0.0101785 3.26072e-23)
(0.0538731 -0.00992749 -5.59167e-24)
(0.054155 -0.00967102 -6.92325e-24)
(0.0544355 -0.00940449 1.55669e-23)
(0.0547165 -0.00912558 1.955e-24)
(0.0549984 -0.00883907 1.51419e-23)
(0.0552809 -0.00855097 -1.42562e-23)
(0.0555634 -0.00825261 1.66077e-22)
(0.0558475 -0.00794233 -9.50971e-23)
(0.0561344 -0.00761944 -1.18187e-22)
(0.0564246 -0.00729238 2.316e-22)
(0.0567161 -0.00695334 8.1127e-22)
(0.0570102 -0.00660058 9.99762e-24)
(0.0573082 -0.00623466 9.58484e-22)
(0.0576112 -0.0058534 -3.68816e-22)
(0.0579221 -0.00545855 -1.1883e-21)
(0.0582421 -0.00505297 7.89626e-22)
(0.0585711 -0.00463374 0)
(0.0589097 -0.0041926 2.93877e-21)
(0.0592597 -0.00372863 9.45921e-23)
(0.0596222 -0.00324408 -1.07752e-21)
(0.059997 -0.00273439 -1.21955e-21)
(0.0603878 -0.00219256 0)
(0.0607997 -0.00160809 1.32644e-21)
(0.0612337 -0.000979352 4.53788e-21)
(0.0616912 -0.000309921 0)
(0.0621692 0.000416025 -3.64066e-21)
(0.0626722 0.00121245 2.21311e-21)
(0.063195 0.00208778 -4.43821e-21)
(0.0637461 0.00306483 2.3065e-21)
(0.0642863 0.00413415 -5.27403e-21)
(0.0649812 0.00527443 -5.80946e-21)
(0.0428965 -0.0150282 -5.14548e-21)
(0.0431859 -0.0150316 3.08323e-21)
(0.0434777 -0.0150264 -9.79728e-22)
(0.0437704 -0.0150133 3.764e-21)
(0.0440645 -0.014994 -4.66906e-21)
(0.0443593 -0.0149682 -3.54095e-21)
(0.0446559 -0.0149359 4.39366e-21)
(0.0449546 -0.0148968 0)
(0.0452551 -0.014851 8.37004e-24)
(0.0455567 -0.0147984 0)
(0.045859 -0.0147394 -7.57585e-22)
(0.0461618 -0.0146737 7.41072e-22)
(0.0464649 -0.0146012 3.49731e-21)
(0.0467678 -0.0145222 -2.78933e-21)
(0.0470704 -0.0144361 6.64719e-22)
(0.0473736 -0.014343 1.88303e-21)
(0.0476768 -0.0142431 -6.28911e-22)
(0.0479801 -0.0141359 -5.89902e-22)
(0.0482832 -0.0140221 -1.64378e-21)
(0.0485865 -0.0139006 1.09415e-21)
(0.0488893 -0.0137724 5.01134e-22)
(0.0491913 -0.0136373 -9.41746e-22)
(0.0494928 -0.0134952 4.94422e-22)
(0.0497938 -0.0133462 4.25046e-22)
(0.0500941 -0.0131905 0)
(0.0503934 -0.0130283 -3.73308e-22)
(0.0506909 -0.0128601 -3.3744e-22)
(0.0509871 -0.0126851 3.68646e-22)
(0.0512824 -0.012503 0)
(0.0515771 -0.0123141 -5.49929e-22)
(0.0518714 -0.0121178 2.36689e-22)
(0.0521662 -0.0119131 -1.89342e-23)
(0.0524595 -0.0117019 0)
(0.0527519 -0.0114832 -7.74834e-23)
(0.0530437 -0.0112571 1.61663e-22)
(0.0533347 -0.0110228 -9.86594e-23)
(0.0536248 -0.0107812 0)
(0.0539142 -0.0105317 -1.28155e-23)
(0.0542039 -0.0102748 1.41723e-24)
(0.0544933 -0.0100108 -3.24173e-24)
(0.0547818 -0.00973841 0)
(0.05507 -0.00945784 -2.2159e-23)
(0.0553588 -0.00916907 -1.6211e-23)
(0.0556492 -0.00887209 1.78573e-23)
(0.0559406 -0.00856579 -1.20251e-22)
(0.0562329 -0.00825015 -1.01305e-22)
(0.0565272 -0.00792532 2.1748e-22)
(0.0568245 -0.00759177 -2.65816e-22)
(0.0571245 -0.00724833 2.82881e-22)
(0.0574278 -0.00689424 -2.89417e-22)
(0.0577358 -0.00652899 -3.29028e-22)
(0.05805 -0.0061513 7.31402e-22)
(0.0583721 -0.00576057 0)
(0.0587037 -0.00535618 8.51937e-22)
(0.059045 -0.00493623 -3.79074e-23)
(0.0593967 -0.00449952 -1.02382e-21)
(0.059761 -0.00404452 -1.10908e-21)
(0.06014 -0.00356855 2.29e-21)
(0.060535 -0.00306655 4.97049e-23)
(0.0609485 -0.00253272 1.33262e-21)
(0.061385 -0.00196348 -2.88893e-21)
(0.0618486 -0.00135606 -1.48874e-21)
(0.0623405 -0.000702126 1.77517e-22)
(0.0628604 8.91771e-06 -1.78226e-21)
(0.0634123 0.000788697 -1.90473e-21)
(0.0639925 0.00164367 -6.7235e-21)
(0.0646157 0.00259844 0)
(0.0652212 0.00365306 -2.95211e-21)
(0.0660108 0.00483015 2.89998e-21)
(0.0429193 -0.0155745 0)
(0.0432197 -0.0155756 1.02572e-21)
(0.0435231 -0.0155678 4.91718e-21)
(0.0438277 -0.0155521 -3.90271e-21)
(0.0441338 -0.0155297 -2.74767e-21)
(0.044441 -0.0155007 4.56813e-21)
(0.0447494 -0.0154647 -8.79521e-22)
(0.0450592 -0.015422 8.42099e-22)
(0.0453703 -0.0153723 8.23732e-22)
(0.0456825 -0.0153159 3.11521e-21)
(0.0459954 -0.0152524 -3.09621e-21)
(0.0463088 -0.015182 -2.89597e-21)
(0.0466226 -0.0151044 7.81918e-22)
(0.0469367 -0.0150197 2.73266e-21)
(0.0472508 -0.0149277 -1.98812e-21)
(0.0475648 -0.0148285 6.22121e-22)
(0.0478785 -0.0147222 -5.95629e-22)
(0.0481917 -0.0146086 -5.69288e-22)
(0.0485044 -0.0144878 1.63638e-21)
(0.0488165 -0.0143599 -5.61972e-22)
(0.0491278 -0.0142248 -5.07969e-22)
(0.0494384 -0.0140827 0)
(0.0497481 -0.0139335 -8.50743e-22)
(0.050057 -0.0137773 4.41498e-22)
(0.0503647 -0.0136144 7.63139e-22)
(0.0506712 -0.0134448 6.79628e-22)
(0.0509766 -0.0132684 -1.39718e-21)
(0.0512809 -0.013085 6.28981e-22)
(0.0515841 -0.0128947 0)
(0.0518863 -0.0126975 5.16757e-22)
(0.0521873 -0.0124934 -2.59823e-23)
(0.0524881 -0.0122802 -4.13103e-22)
(0.0527879 -0.0120598 1.45038e-22)
(0.0530866 -0.0118321 -3.14572e-22)
(0.0533843 -0.0115974 6.7781e-23)
(0.0536809 -0.0113558 0)
(0.0539765 -0.0111071 0)
(0.0542715 -0.0108512 5.49064e-25)
(0.054566 -0.0105882 3.38369e-24)
(0.0548602 -0.0103184 7.25382e-24)
(0.0551539 -0.0100411 -3.32582e-25)
(0.0554477 -0.00975615 1.20832e-23)
(0.0557421 -0.00946306 0)
(0.0560377 -0.00916212 -3.48029e-24)
(0.0563345 -0.00885333 0)
(0.0566328 -0.00853623 1.06477e-22)
(0.0569335 -0.0082103 1.48745e-23)
(0.0572374 -0.00787543 -3.92811e-22)
(0.0575448 -0.00753133 0)
(0.0578563 -0.00717715 -3.3302e-22)
(0.0581731 -0.00681212 3.28449e-22)
(0.0584963 -0.00643553 -7.37531e-22)
(0.0588273 -0.00604684 0)
(0.0591674 -0.00564564 -2.62935e-21)
(0.0595178 -0.00523108 -3.43122e-23)
(0.0598799 -0.00480156 9.5023e-22)
(0.0602557 -0.00435472 1.02824e-21)
(0.0606478 -0.00388813 0)
(0.0610587 -0.00339854 0)
(0.0614919 -0.00288185 -1.3432e-21)
(0.061952 -0.00233326 2.9112e-21)
(0.062443 -0.00174717 3.16622e-21)
(0.0629684 -0.00111631 0)
(0.0635306 -0.000431552 -3.78832e-21)
(0.064134 0.000319768 0)
(0.0647748 0.00114838 7.0593e-21)
(0.0654695 0.00207786 -2.42251e-21)
(0.0661557 0.00310926 -3.04716e-21)
(0.0670394 0.00427757 -3.43983e-21)
(0.0429583 -0.0161493 0)
(0.0432689 -0.0161476 0)
(0.0435832 -0.0161365 9.97394e-22)
(0.0438989 -0.0161173 -3.82773e-21)
(0.0442165 -0.016091 4.74363e-21)
(0.0445357 -0.0160578 -9.13481e-22)
(0.0448561 -0.0160175 0)
(0.0451777 -0.0159701 -8.54671e-22)
(0.0455002 -0.0159156 0)
(0.0458236 -0.015854 -1.55521e-21)
(0.0461475 -0.015785 6.7532e-23)
(0.046472 -0.0157087 1.49454e-21)
(0.0467967 -0.0156251 0)
(0.0471215 -0.015534 -1.32887e-21)
(0.0474463 -0.0154355 3.90071e-21)
(0.0477708 -0.0153297 -2.50873e-21)
(0.0480948 -0.0152164 2.98687e-21)
(0.0484182 -0.0150958 -5.8764e-22)
(0.0487407 -0.0149678 5.32101e-22)
(0.0490624 -0.0148326 -5.23936e-22)
(0.049383 -0.0146901 -4.70569e-22)
(0.0497025 -0.0145405 1.40257e-21)
(0.0500207 -0.0143838 8.68701e-22)
(0.0503377 -0.01422 0)
(0.0506534 -0.0140494 -7.32743e-22)
(0.0509677 -0.013872 -3.04847e-22)
(0.0512806 -0.0136878 1.01765e-21)
(0.051592 -0.013497 -3.08209e-22)
(0.051902 -0.0132996 5.07953e-22)
(0.0522105 -0.0130958 -7.62841e-22)
(0.0525178 -0.0128844 1.9676e-22)
(0.0528241 -0.0126648 -8.14671e-23)
(0.0531293 -0.012438 0)
(0.0534333 -0.0122044 5.92853e-23)
(0.053736 -0.0119642 4.35726e-23)
(0.0540377 -0.0117172 0)
(0.0543385 -0.0114634 -4.23251e-24)
(0.0546387 -0.0112025 -1.30393e-23)
(0.0549386 -0.0109347 1.2308e-23)
(0.0552382 -0.0106597 -1.66892e-23)
(0.0555378 -0.0103775 -4.60222e-25)
(0.0558378 -0.0100877 -2.43951e-23)
(0.0561384 -0.00979022 8.27028e-24)
(0.0564402 -0.00948514 4.14391e-23)
(0.0567435 -0.0091723 -3.86374e-24)
(0.0570486 -0.00885136 3.29385e-22)
(0.0573563 -0.00852208 0)
(0.057667 -0.00818435 2.70726e-22)
(0.0579813 -0.00783793 1.07817e-23)
(0.0582999 -0.00748233 -3.12583e-22)
(0.0586237 -0.0071171 0)
(0.0589539 -0.00674179 -3.98072e-22)
(0.0592916 -0.0063559 3.92648e-22)
(0.0596385 -0.00595887 8.74486e-22)
(0.059996 -0.00554983 0)
(0.0603661 -0.00512753 -2.05471e-21)
(0.0607513 -0.00469029 2.15879e-21)
(0.0611546 -0.00423614 -2.31701e-21)
(0.0615796 -0.00376222 -4.10544e-23)
(0.0620307 -0.00326472 0)
(0.0625127 -0.00273895 -1.52845e-21)
(0.0630309 -0.0021793 1.60967e-21)
(0.0635902 -0.00157811 1.78191e-21)
(0.0641946 -0.000925732 3.8141e-21)
(0.0648499 -0.000208767 -6.41702e-21)
(0.065553 0.000584667 4.69571e-21)
(0.0663227 0.00147865 -2.45201e-21)
(0.0670964 0.00248128 2.74295e-21)
(0.0680845 0.0036159 9.5116e-21)
(0.0430097 -0.0167531 -4.23901e-21)
(0.043332 -0.0167489 1.13343e-22)
(0.0436578 -0.0167347 4.07973e-21)
(0.043985 -0.0167117 0)
(0.0443142 -0.0166814 -9.47755e-22)
(0.0446451 -0.0166436 0)
(0.0449774 -0.0165985 1.73141e-21)
(0.0453109 -0.0165459 -5.54416e-23)
(0.0456453 -0.016486 -2.47364e-21)
(0.0459805 -0.0164186 7.79265e-22)
(0.0463161 -0.0163435 7.65358e-22)
(0.0466519 -0.0162609 7.19223e-22)
(0.0469876 -0.0161706 0)
(0.0473232 -0.0160727 0)
(0.0476585 -0.0159672 -6.5035e-22)
(0.0479932 -0.0158542 -6.22267e-22)
(0.0483272 -0.0157335 1.14256e-21)
(0.0486603 -0.0156054 -1.14298e-21)
(0.0489925 -0.0154698 -1.05808e-21)
(0.0493235 -0.0153268 9.7586e-22)
(0.0496531 -0.0151765 -1.91948e-21)
(0.0499814 -0.0150189 3.59935e-23)
(0.0503082 -0.0148543 8.46441e-22)
(0.0506334 -0.0146827 3.80395e-22)
(0.050957 -0.0145042 6.99038e-22)
(0.0512789 -0.0143189 -7.02434e-22)
(0.051599 -0.0141269 -5.85784e-22)
(0.0519175 -0.0139285 5.89428e-22)
(0.0522342 -0.0137236 0)
(0.0525491 -0.0135126 0)
(0.0528631 -0.0132929 -4.56121e-22)
(0.0531755 -0.0130658 4.22392e-23)
(0.0534866 -0.0128317 1.3563e-22)
(0.0537963 -0.0125909 7.38633e-23)
(0.0541049 -0.0123434 -7.2802e-23)
(0.0544124 -0.0120892 0)
(0.054719 -0.0118283 4.25873e-24)
(0.055025 -0.0115606 -3.14865e-23)
(0.0553306 -0.0112862 2.14382e-23)
(0.055636 -0.0110049 -2.18089e-24)
(0.0559415 -0.0107167 -5.12821e-24)
(0.0562472 -0.0104216 2.38015e-23)
(0.0565536 -0.0101193 2.12747e-23)
(0.056861 -0.00980994 5.05233e-23)
(0.0571699 -0.00949324 -2.66885e-22)
(0.0574807 -0.00916908 -3.97626e-24)
(0.0577938 -0.00883726 0)
(0.0581097 -0.00849762 -2.93016e-22)
(0.0584292 -0.00814992 9.53401e-22)
(0.0587528 -0.00779389 -6.64571e-22)
(0.0590814 -0.00742921 -3.78648e-22)
(0.0594162 -0.00705559 -1.699e-23)
(0.0597585 -0.0066727 -4.48562e-22)
(0.06011 -0.0062802 -6.89515e-23)
(0.0604726 -0.00587756 9.09244e-22)
(0.0608486 -0.00546401 -9.99858e-22)
(0.0612411 -0.00503836 -1.11951e-21)
(0.0616537 -0.00459897 2.3029e-21)
(0.0620908 -0.00414348 6.05459e-23)
(0.0625573 -0.00366869 1.39059e-21)
(0.0630591 -0.0031703 -1.37044e-21)
(0.0636023 -0.00264261 1.57701e-21)
(0.0641936 -0.00207784 -3.45109e-21)
(0.0648386 -0.00146615 -2.00286e-21)
(0.0655451 -0.000793512 3.94608e-21)
(0.0663118 -4.64684e-05 -2.42196e-21)
(0.0671593 0.000800682 -8.01652e-21)
(0.0680247 0.00176091 -3.12802e-21)
(0.0691147 0.00284855 0)
(0.0430659 -0.0173866 0)
(0.0434023 -0.0173801 -1.04149e-21)
(0.0437417 -0.0173629 -1.23097e-23)
(0.0440821 -0.0173363 0)
(0.0444241 -0.0173018 0)
(0.0447676 -0.0172595 -9.01855e-22)
(0.0451124 -0.0172094 2.59508e-21)
(0.0454583 -0.0171515 -3.38132e-21)
(0.0458051 -0.0170857 1.67338e-21)
(0.0461526 -0.0170121 -7.9025e-22)
(0.0465002 -0.0169306 0)
(0.0468479 -0.0168411 -7.29196e-22)
(0.0471954 -0.0167438 6.79145e-22)
(0.0475424 -0.0166385 0)
(0.0478887 -0.0165254 0)
(0.0482342 -0.0164044 -5.84136e-22)
(0.0485787 -0.0162757 5.77344e-23)
(0.048922 -0.0161393 1.11608e-21)
(0.0492639 -0.0159954 1.02393e-21)
(0.0496044 -0.0158439 -1.00236e-21)
(0.0499432 -0.015685 -4.69322e-22)
(0.0502803 -0.0155188 -1.68982e-21)
(0.0506156 -0.0153455 3.10059e-23)
(0.0509491 -0.0151651 3.32569e-22)
(0.0512806 -0.0149779 -7.20581e-22)
(0.0516102 -0.014784 2.99376e-22)
(0.0519377 -0.0145834 -6.06289e-22)
(0.0522633 -0.0143764 0)
(0.052587 -0.0141631 0)
(0.0529084 -0.0139436 0)
(0.053229 -0.0137152 8.77179e-23)
(0.0535476 -0.0134798 1.27045e-22)
(0.0538646 -0.0132378 -1.134e-22)
(0.0541802 -0.0129893 -5.23613e-23)
(0.0544944 -0.0127344 5.16196e-23)
(0.0548075 -0.0124732 0)
(0.0551196 -0.0122056 1.75348e-23)
(0.055431 -0.0119315 -7.48947e-24)
(0.0557418 -0.0116511 0)
(0.0560524 -0.0113642 2.56551e-23)
(0.0563629 -0.0110708 -6.31436e-24)
(0.0566737 -0.0107708 4.37849e-24)
(0.056985 -0.010464 -2.14217e-23)
(0.0572972 -0.0101504 0)
(0.0576107 -0.00982978 -1.2095e-22)
(0.0579258 -0.00950209 1.19304e-22)
(0.058243 -0.00916718 0)
(0.0585629 -0.00882496 -1.88099e-23)
(0.0588859 -0.00847535 -9.7872e-24)
(0.0592128 -0.00811824 3.44041e-22)
(0.0595446 -0.00775357 0)
(0.0598825 -0.00738128 -2.59808e-24)
(0.0602279 -0.00700133 -4.1943e-22)
(0.0605825 -0.00661363 -1.36771e-21)
(0.0609487 -0.00621803 -2.62025e-23)
(0.061329 -0.00581414 1.00843e-21)
(0.0617269 -0.0054013 0)
(0.0621465 -0.00497845 0)
(0.0625926 -0.0045439 1.18381e-21)
(0.0630711 -0.00409512 0)
(0.0635887 -0.00362838 0)
(0.064153 -0.0031384 1.24709e-22)
(0.0647725 -0.00261756 -1.57859e-21)
(0.0654551 -0.00205591 -3.74549e-21)
(0.0662112 -0.00143866 3.92055e-21)
(0.067042 -0.000750693 1.45314e-22)
(0.0679705 3.56899e-05 2.42583e-21)
(0.0689347 0.000941366 2.75413e-21)
(0.0701236 0.00197719 0)
(0.0431235 -0.0180505 0)
(0.0434757 -0.0180416 1.05685e-21)
(0.0438307 -0.0180212 -3.01476e-21)
(0.0441862 -0.0179909 1.01684e-21)
(0.0445429 -0.0179522 0)
(0.0449007 -0.0179052 2.6977e-21)
(0.0452593 -0.0178498 -4.37126e-21)
(0.0456188 -0.0177862 6.04077e-23)
(0.0459789 -0.0177143 4.0381e-21)
(0.0463394 -0.0176341 -8.14809e-22)
(0.0466998 -0.0175457 7.28792e-22)
(0.0470601 -0.0174489 6.96712e-22)
(0.0474199 -0.0173438 -2.01384e-21)
(0.0477789 -0.0172306 2.58708e-21)
(0.048137 -0.0171092 -1.26218e-21)
(0.048494 -0.0169797 5.45008e-22)
(0.0488495 -0.0168423 -2.2247e-21)
(0.0492035 -0.016697 5.69863e-22)
(0.0495558 -0.0165439 -4.55693e-22)
(0.0499062 -0.0163832 5.13624e-22)
(0.0502546 -0.0162149 5.94947e-23)
(0.0506009 -0.0160394 2.46008e-21)
(0.050945 -0.0158567 3.33958e-22)
(0.0512868 -0.0156669 -6.03509e-23)
(0.0516264 -0.0154704 -9.87093e-22)
(0.0519636 -0.0152671 3.0724e-22)
(0.0522985 -0.0150574 -4.99086e-22)
(0.0526311 -0.0148414 7.23082e-22)
(0.0529615 -0.0146192 0)
(0.0532897 -0.0143901 1.56821e-22)
(0.0536161 -0.0141531 -1.546e-22)
(0.0539407 -0.0139092 1.26971e-23)
(0.0542633 -0.0136591 3.09844e-23)
(0.0545842 -0.0134028 1.59873e-23)
(0.0549036 -0.0131403 -1.88531e-24)
(0.0552217 -0.0128718 4.26271e-25)
(0.0555386 -0.0125971 4.11052e-23)
(0.0558547 -0.0123164 -6.89376e-23)
(0.0561701 -0.0120295 4.08535e-23)
(0.0564851 -0.0117363 -1.4039e-23)
(0.0567999 -0.011437 0)
(0.0571147 -0.0111313 2.31237e-23)
(0.0574299 -0.0108191 -2.28099e-23)
(0.0577458 -0.0105005 -5.83143e-23)
(0.0580627 -0.0101754 1.85943e-22)
(0.0583811 -0.00984362 -1.23251e-22)
(0.0587013 -0.00950526 -1.38145e-22)
(0.0590238 -0.00916027 0)
(0.0593494 -0.0088087 -6.86296e-22)
(0.0596787 -0.00845059 7.13183e-22)
(0.0600128 -0.00808605 -3.76826e-22)
(0.0603528 -0.00771523 3.71995e-22)
(0.0607002 -0.00733835 3.93798e-22)
(0.0610568 -0.00695565 8.78979e-22)
(0.061425 -0.00656736 9.45759e-22)
(0.0618076 -0.00617365 0)
(0.0622081 -0.00577451 -1.02454e-21)
(0.062631 -0.00536963 0)
(0.0630818 -0.0049582 2.39728e-23)
(0.0635672 -0.0045386 -1.2953e-21)
(0.0640951 -0.004108 1.28522e-21)
(0.0646748 -0.00366193 1.49154e-21)
(0.065317 -0.00319328 -1.52619e-21)
(0.0660323 -0.00269233 -7.27221e-23)
(0.0668347 -0.00214361 -1.67653e-22)
(0.0677295 -0.00153052 6.67694e-21)
(0.0687417 -0.00082174 2.46411e-21)
(0.0698118 1.32257e-05 3.18216e-21)
(0.0710851 0.000971887 -3.10828e-21)
(0.0431835 -0.0187472 0)
(0.0435524 -0.0187354 0)
(0.0439239 -0.0187114 -1.98856e-21)
(0.0442957 -0.0186769 2.95911e-21)
(0.0446685 -0.0186336 9.2399e-22)
(0.0450421 -0.0185814 0)
(0.0454161 -0.0185203 0)
(0.0457905 -0.0184505 -8.16025e-22)
(0.0461651 -0.0183721 1.55726e-21)
(0.0465397 -0.0182848 -8.74968e-23)
(0.046914 -0.0181889 -3.64633e-21)
(0.0472876 -0.0180842 7.13042e-22)
(0.0476603 -0.0179709 -6.4531e-22)
(0.048032 -0.017849 1.29015e-21)
(0.0484024 -0.0177187 -5.83322e-22)
(0.0487712 -0.0175801 0)
(0.0491383 -0.0174332 0)
(0.0495034 -0.0172783 2.81834e-23)
(0.0498663 -0.0171154 1.44318e-21)
(0.050227 -0.0169448 -4.59867e-22)
(0.0505852 -0.0167665 4.0117e-22)
(0.0509408 -0.0165809 -4.01025e-22)
(0.0512939 -0.0163882 -3.432e-22)
(0.0516442 -0.0161884 3.74741e-22)
(0.0519918 -0.0159818 3.13037e-22)
(0.0523366 -0.0157687 0)
(0.0526788 -0.0155492 0)
(0.0530183 -0.0153235 -3.20538e-22)
(0.0533548 -0.0150921 0)
(0.0536896 -0.0148527 -1.29774e-22)
(0.0540217 -0.0146064 1.27969e-22)
(0.0543517 -0.0143536 4.67012e-23)
(0.0546795 -0.0140948 -3.11232e-23)
(0.0550053 -0.0138301 -1.95427e-23)
(0.0553293 -0.0135595 1.46024e-24)
(0.0556519 -0.0132831 -2.53482e-23)
(0.0559731 -0.0130008 3.06308e-23)
(0.0562932 -0.0127128 0)
(0.0566125 -0.0124189 0)
(0.0569311 -0.0121191 1.89713e-23)
(0.0572494 -0.0118135 0)
(0.0575675 -0.0115019 0)
(0.0578859 -0.0111843 -8.44837e-23)
(0.0582048 -0.0108607 1.17147e-22)
(0.0585245 -0.010531 -6.67117e-23)
(0.0588456 -0.0101952 1.37567e-22)
(0.0591683 -0.00985334 0)
(0.0594933 -0.0095055 5.01749e-22)
(0.0598212 -0.00915179 8.56223e-24)
(0.0601525 -0.00879239 0)
(0.0604884 -0.00842759 -7.70836e-22)
(0.0608297 -0.00805777 1.20978e-23)
(0.061178 -0.00768345 -8.37848e-22)
(0.061535 -0.00730524 -4.41337e-22)
(0.061903 -0.00692389 -9.5639e-22)
(0.0622847 -0.0065402 9.43644e-22)
(0.062684 -0.00615496 1.03373e-21)
(0.0631056 -0.00576879 0)
(0.0635556 -0.00538201 -1.15921e-21)
(0.0640414 -0.00499424 -7.84409e-23)
(0.0645725 -0.00460395 0)
(0.0651599 -0.00420796 0)
(0.0658169 -0.00380027 1.54027e-21)
(0.0665578 -0.00337187 0)
(0.067401 -0.00290704 0)
(0.0683583 -0.00238745 -1.86978e-21)
(0.0694527 -0.00177632 -2.40461e-21)
(0.0706224 -0.00104033 -2.7251e-21)
(0.0719223 -0.000157306 0)
(0.0432491 -0.0194802 0)
(0.043635 -0.0194648 0)
(0.0440236 -0.0194366 0)
(0.0444124 -0.0193972 9.51146e-22)
(0.044802 -0.0193485 8.81138e-22)
(0.0451921 -0.0192905 -6.62362e-23)
(0.0455825 -0.0192231 -1.73486e-21)
(0.0459729 -0.0191465 8.2704e-22)
(0.0463632 -0.0190607 -7.63258e-22)
(0.046753 -0.0189658 -1.48432e-21)
(0.047142 -0.0188616 0)
(0.0475299 -0.0187483 0)
(0.0479164 -0.018626 -2.91805e-23)
(0.0483014 -0.0184948 -1.84044e-21)
(0.0486846 -0.0183548 2.27095e-21)
(0.0490658 -0.0182062 -6.23945e-23)
(0.0494447 -0.0180491 -1.05687e-21)
(0.0498212 -0.0178837 -4.96839e-22)
(0.050195 -0.0177102 -3.24613e-23)
(0.050566 -0.0175289 0)
(0.0509341 -0.0173398 -7.79305e-22)
(0.0512992 -0.0171434 0)
(0.0516611 -0.0169397 -6.60014e-22)
(0.0520198 -0.0167291 8.88412e-22)
(0.0523754 -0.0165118 -8.28209e-22)
(0.0527277 -0.016288 -2.24433e-22)
(0.0530769 -0.016058 2.9289e-22)
(0.053423 -0.015822 -2.63786e-22)
(0.0537656 -0.0155801 1.65529e-22)
(0.0541062 -0.0153301 0)
(0.0544439 -0.0150738 6.88177e-23)
(0.0547788 -0.0148116 -1.0771e-23)
(0.0551113 -0.0145435 -3.76672e-23)
(0.0554416 -0.0142699 -6.38449e-24)
(0.0557698 -0.0139907 2.38794e-23)
(0.0560963 -0.0137061 -2.35584e-23)
(0.0564213 -0.013416 -1.90048e-23)
(0.056745 -0.0131204 3.12842e-23)
(0.0570676 -0.0128194 1.9177e-23)
(0.0573895 -0.0125129 -5.64721e-23)
(0.057711 -0.0122008 -6.15328e-24)
(0.0580322 -0.0118832 0)
(0.0583535 -0.0115601 2.79789e-23)
(0.0586753 -0.0112312 -6.16285e-23)
(0.0589978 -0.0108968 6.71733e-23)
(0.0593215 -0.0105567 0)
(0.0596468 -0.010211 0)
(0.0599741 -0.0098599 1.82933e-22)
(0.0603039 -0.00950355 -3.44407e-22)
(0.0606368 -0.00914227 -7.64049e-22)
(0.0609736 -0.00877652 1.56942e-21)
(0.0613152 -0.00840691 -4.09776e-22)
(0.0616628 -0.00803426 4.14996e-22)
(0.062018 -0.00765963 4.45125e-22)
(0.062383 -0.00728429 -9.3744e-22)
(0.0627604 -0.00690979 9.25138e-22)
(0.0631541 -0.00653783 0)
(0.063569 -0.00617022 -9.79391e-22)
(0.0640116 -0.00580865 -7.56465e-23)
(0.0644902 -0.0054544 1.06824e-21)
(0.0650154 -0.00510782 0)
(0.0656001 -0.00476766 0)
(0.0662608 -0.00442992 0)
(0.0670172 -0.00408699 2.91707e-21)
(0.0678931 -0.00372377 1.75722e-21)
(0.0689106 -0.00331766 2.32528e-21)
(0.0700741 -0.0028294 -4.36348e-21)
(0.0713209 -0.00220305 2.43346e-22)
(0.0724818 -0.00141499 3.06356e-21)
(0.043323 -0.0202528 0)
(0.0437266 -0.0202333 2.03524e-21)
(0.0441329 -0.0202001 -2.51208e-21)
(0.0445392 -0.0201552 1.37079e-21)
(0.0449462 -0.0201003 -2.7518e-21)
(0.0453536 -0.0200357 -8.54895e-22)
(0.0457609 -0.0199611 -8.15983e-22)
(0.046168 -0.0198768 0)
(0.0465747 -0.0197829 1.51339e-21)
(0.0469805 -0.0196793 1.44353e-21)
(0.047385 -0.019566 -1.40526e-21)
(0.047788 -0.0194432 6.31946e-22)
(0.0481891 -0.0193109 -5.67642e-22)
(0.0485882 -0.0191694 6.63895e-22)
(0.0489849 -0.0190188 2.1622e-21)
(0.0493789 -0.0188592 -6.37203e-23)
(0.0497702 -0.0186909 -6.32228e-23)
(0.0501584 -0.0185141 -9.37855e-22)
(0.0505434 -0.0183291 -4.38965e-22)
(0.0509249 -0.018136 -7.5143e-22)
(0.051303 -0.0179352 7.88836e-22)
(0.0516775 -0.0177269 0)
(0.0520482 -0.0175114 3.62004e-23)
(0.0524152 -0.0172891 0)
(0.0527785 -0.0170602 2.57109e-22)
(0.0531381 -0.0168249 2.26901e-22)
(0.053494 -0.0165836 -9.82392e-23)
(0.0538462 -0.0163366 0)
(0.0541951 -0.0160829 -4.94246e-23)
(0.0545408 -0.0158221 -6.92714e-23)
(0.0548835 -0.0155553 6.83452e-23)
(0.0552231 -0.015283 -1.89983e-23)
(0.0555599 -0.0150054 -1.96801e-23)
(0.0558942 -0.0147225 5.30209e-23)
(0.0562262 -0.0144344 -2.33654e-23)
(0.0565563 -0.0141412 0)
(0.0568847 -0.013843 -3.14283e-23)
(0.0572116 -0.0135397 6.08303e-24)
(0.0575375 -0.0132313 6.24905e-23)
(0.0578625 -0.0129179 -5.54821e-23)
(0.0581869 -0.0125993 1.15557e-23)
(0.058511 -0.0122755 -4.54475e-23)
(0.0588352 -0.0119465 2.99846e-23)
(0.0591598 -0.0116123 0)
(0.059485 -0.0112728 0)
(0.0598113 -0.010928 0)
(0.0601388 -0.0105782 1.69876e-22)
(0.060468 -0.0102233 1.7853e-22)
(0.0607993 -0.00986366 0)
(0.061133 -0.00949974 3.74949e-22)
(0.0614698 -0.00913208 3.9461e-22)
(0.0618104 -0.00876152 4.15336e-22)
(0.0621558 -0.00838919 0)
(0.0625071 -0.00801655 0)
(0.0628664 -0.00764549 -9.15701e-22)
(0.063236 -0.00727833 9.0393e-22)
(0.0636196 -0.00691785 0)
(0.064022 -0.00656724 9.88977e-22)
(0.0644497 -0.00622992 -1.01797e-21)
(0.0649114 -0.0059093 -9.31116e-22)
(0.0654187 -0.00560831 1.05713e-21)
(0.0659869 -0.00532866 -1.04155e-21)
(0.0666368 -0.00506953 0)
(0.0673963 -0.00482556 -1.36078e-21)
(0.0682966 -0.00458308 -7.88835e-24)
(0.0693672 -0.00431083 -2.9104e-21)
(0.0705634 -0.00397292 -3.91313e-21)
(0.0717988 -0.00344545 4.65924e-21)
(0.072452 -0.0028442 -3.09197e-21)
(0.0434073 -0.0210686 5.23575e-22)
(0.0438295 -0.0210442 0)
(0.0442544 -0.0210054 4.95449e-22)
(0.0446791 -0.0209541 -2.30196e-21)
(0.0451043 -0.0208923 4.03336e-21)
(0.0455296 -0.0208201 -8.69663e-22)
(0.0459546 -0.0207374 8.26483e-22)
(0.0463791 -0.0206445 -1.50549e-21)
(0.0468027 -0.0205413 7.49812e-22)
(0.0472252 -0.020428 7.12155e-22)
(0.0476459 -0.0203046 6.35828e-22)
(0.0480646 -0.0201711 -1.84851e-21)
(0.0484809 -0.0200279 6.41666e-22)
(0.0488946 -0.0198749 -1.5991e-21)
(0.0493053 -0.0197125 -4.70833e-22)
(0.0497128 -0.0195408 6.4858e-23)
(0.0501168 -0.0193602 9.3545e-22)
(0.0505171 -0.0191709 0)
(0.0509135 -0.0189731 0)
(0.0513059 -0.0187672 3.34921e-22)
(0.051694 -0.0185535 3.4507e-22)
(0.0520779 -0.0183324 5.60398e-22)
(0.0524575 -0.0181041 -2.77479e-22)
(0.0528327 -0.017869 -4.39708e-22)
(0.0532035 -0.0176275 4.41204e-22)
(0.0535701 -0.0173799 -7.7145e-23)
(0.0539324 -0.0171264 -6.20831e-23)
(0.0542903 -0.0168675 0)
(0.054645 -0.0166012 4.95575e-23)
(0.0549957 -0.016329 3.55523e-23)
(0.0553428 -0.0160512 -2.90901e-23)
(0.0556866 -0.0157684 -5.91857e-24)
(0.0560273 -0.0154806 -2.6308e-23)
(0.0563653 -0.015188 0)
(0.0567007 -0.0148906 2.60844e-23)
(0.057034 -0.0145886 -3.22896e-23)
(0.0573655 -0.014282 3.1581e-23)
(0.0576954 -0.0139707 -8.19353e-23)
(0.0580241 -0.0136548 0)
(0.0583519 -0.0133342 -1.3866e-23)
(0.058679 -0.0130089 1.44986e-23)
(0.0590059 -0.0126787 -2.62158e-23)
(0.0593327 -0.0123437 1.04067e-22)
(0.0596597 -0.0120038 -2.23114e-22)
(0.0599874 -0.011659 1.50712e-22)
(0.0603158 -0.0113093 1.7127e-22)
(0.0606453 -0.0109547 -1.61586e-22)
(0.060976 -0.0105954 3.82645e-22)
(0.0613083 -0.0102318 -3.71241e-22)
(0.0616424 -0.00986422 -9.96702e-22)
(0.0619786 -0.00949341 -6.20414e-24)
(0.0623174 -0.00912034 -4.18731e-22)
(0.0626593 -0.00874641 0)
(0.0630052 -0.00837347 0)
(0.0633565 -0.00800399 -8.93875e-22)
(0.0637151 -0.00764112 1.34314e-21)
(0.0640839 -0.0072888 -8.86489e-22)
(0.0644672 -0.00695175 0)
(0.0648709 -0.0066355 8.31894e-22)
(0.0653035 -0.00634622 1.82244e-21)
(0.0657778 -0.00609033 -9.70038e-22)
(0.066313 -0.00587375 -2.63749e-23)
(0.0669371 -0.00570027 8.81526e-22)
(0.0676887 -0.00556769 2.47116e-22)
(0.0686029 -0.00546369 -2.15772e-21)
(0.0696938 -0.00534552 2.57418e-21)
(0.070815 -0.00518242 1.74883e-21)
(0.0717571 -0.0047604 0)
(0.0713155 -0.00455417 0)
(0.0435037 -0.0219313 -5.30346e-22)
(0.0439459 -0.0219014 -2.44809e-21)
(0.0443906 -0.0218562 1.94651e-21)
(0.0448347 -0.0217977 0)
(0.0452791 -0.021728 4.41125e-22)
(0.0457233 -0.0216472 1.60449e-21)
(0.0461668 -0.0215554 -1.21869e-21)
(0.0466095 -0.0214527 1.79865e-21)
(0.0470509 -0.0213392 -1.43516e-21)
(0.0474906 -0.0212151 0)
(0.0479282 -0.0210802 -3.44694e-22)
(0.0483631 -0.0209349 0)
(0.0487952 -0.0207793 -4.93706e-22)
(0.0492239 -0.0206136 1.59747e-21)
(0.0496491 -0.0204381 0)
(0.0500704 -0.0202531 0)
(0.0504875 -0.0200588 0)
(0.0509002 -0.0198556 5.5111e-22)
(0.0513082 -0.0196439 -7.28771e-22)
(0.0517115 -0.0194239 -3.38599e-22)
(0.0521098 -0.0191961 0)
(0.0525031 -0.0189609 0)
(0.0528913 -0.0187186 0)
(0.0532745 -0.0184697 4.47054e-22)
(0.0536527 -0.0182146 -5.12527e-22)
(0.0540259 -0.0179536 2.28977e-22)
(0.0543942 -0.0176871 1.04295e-22)
(0.0547577 -0.0174148 -5.92855e-23)
(0.0551173 -0.0171357 5.85232e-23)
(0.0554726 -0.0168512 3.14623e-24)
(0.0558238 -0.0165618 -2.88544e-23)
(0.0561713 -0.0162678 -1.84333e-24)
(0.0565154 -0.0159693 6.96229e-23)
(0.0568564 -0.0156666 5.57414e-23)
(0.0571948 -0.0153596 -2.61923e-23)
(0.0575308 -0.0150484 3.24317e-23)
(0.0578649 -0.014733 0)
(0.0581973 -0.0144135 -6.9266e-24)