/*--------------------------------*- C++ -*----------------------------------*\
| =========                 |                                                 |
| \\      /  F ield         | OpenFOAM: The Open Source CFD Toolbox           |
|  \\    /   O peration     | Version:  2312                                  |
|   \\  /    A nd           | Website:  www.openfoam.com                      |
|    \\/     M anipulation  |                                                 |
\*---------------------------------------------------------------------------*/
FoamFile
{
    version     2.0;
    format      ascii;
    arch        "LSB;label=32;scalar=64";
    class       volScalarField;
    location    "1700";
    object      epsilon;
}
// * * * * * * * * * * * * * * * * * * * * * * * * * * * * * * * * * * * * * //

dimensions      [0 2 -3 0 0 0 0];

internalField   nonuniform List<scalar> 
76025
(
0.000249984
0.000249628
0.000249072
0.000248742
0.000248192
0.000247811
0.000247261
0.00024624
0.000245298
0.000244826
0.000244378
0.000243951
0.000243686
0.00024345
0.000243317
0.000242955
0.000242675
0.000242236
0.000241866
0.000241299
0.000240723
0.000240147
0.000239042
0.00023781
0.000236987
0.000235139
0.000234752
0.000234211
0.000235716
0.000234858
0.000234685
0.000235554
0.000235795
0.000235524
0.000235074
0.000234415
0.000233767
0.000233049
0.00023229
0.000231627
0.000230774
0.000230281
0.000229495
0.000228939
0.000228008
0.00022795
0.000228531
0.000229522
0.000232053
0.000234249
0.000238744
0.000242147
0.000249015
0.000253452
0.000262814
0.000268608
0.00028016
0.000289377
0.000304682
0.000319802
0.000342684
0.000367916
0.000409982
0.000454392
0.000540015
0.000641121
0.000829154
0.00119731
0.00173335
0.000252297
0.000251821
0.000251238
0.000250719
0.000250369
0.000250046
0.000249693
0.00024924
0.000248552
0.000247875
0.00024722
0.000246711
0.000246187
0.000245671
0.00024516
0.000244597
0.000244094
0.000243638
0.000242703
0.000242205
0.000241674
0.000242159
0.00024109
0.000241392
0.000241388
0.00024074
0.000240362
0.000239759
0.000239456
0.000238984
0.00023874
0.000238388
0.000237982
0.000237448
0.000236938
0.000236391
0.000235863
0.000235335
0.000234834
0.000234351
0.00023382
0.000233149
0.000232952
0.000232722
0.000233457
0.000234495
0.000236441
0.000238432
0.000241453
0.000244517
0.000248719
0.000253072
0.000258687
0.000264752
0.000272514
0.000281279
0.000292849
0.000306734
0.000324202
0.000347293
0.00037355
0.000413698
0.000458109
0.000523092
0.000629429
0.000764603
0.00105169
0.00157416
0.00228303
0.000254027
0.000253109
0.000252761
0.000252668
0.000252129
0.000251603
0.000251334
0.000250419
0.000250142
0.000250096
0.0002501
0.000249665
0.000249133
0.00024848
0.000247844
0.000247185
0.000246293
0.000245373
0.000244725
0.000244319
0.000243684
0.000243532
0.000243101
0.000243118
0.000242105
0.000242907
0.000241992
0.000242539
0.000242671
0.000242369
0.000242009
0.000241571
0.000241123
0.000240683
0.000240273
0.000239821
0.000239358
0.00023907
0.000238264
0.000237592
0.000237656
0.000237825
0.000238549
0.000239398
0.000240926
0.000242481
0.000244903
0.000247276
0.000250846
0.000254244
0.000259343
0.000264163
0.000271464
0.000278516
0.000289046
0.000299678
0.00031483
0.000330937
0.000352924
0.00037822
0.000411905
0.000456284
0.000512401
0.000600413
0.00074061
0.000934538
0.00134943
0.00197668
0.00282245
0.000256437
0.000256082
0.00025587
0.000255663
0.000255208
0.00025455
0.000253898
0.000253544
0.000252625
0.000253005
0.000252468
0.000252689
0.000252534
0.000252128
0.00025136
0.000250764
0.000249877
0.00024908
0.000248319
0.000247174
0.000246815
0.000245535
0.00024506
0.000245062
0.000245101
0.000244158
0.000243916
0.000243645
0.000244049
0.000245366
0.000244315
0.000244516
0.000244873
0.000244482
0.0002442
0.000242924
0.00024292
0.000242977
0.000243247
0.000243598
0.000244254
0.000245049
0.000246247
0.000247631
0.000249543
0.000251695
0.000254545
0.000257723
0.000261827
0.000266406
0.000272226
0.000278803
0.000287048
0.000296509
0.000308198
0.00032183
0.00033863
0.00035895
0.000384456
0.000417012
0.000458635
0.000516815
0.000593154
0.000718272
0.000910584
0.00119035
0.00175857
0.00248239
0.00354959
0.000259161
0.000258814
0.000258099
0.000257786
0.000257664
0.000257323
0.000256469
0.000256073
0.000256033
0.000255323
0.000255113
0.000255533
0.000255327
0.000254858
0.000254494
0.000253572
0.000253613
0.000253318
0.000252554
0.000251619
0.000251023
0.000250467
0.000249692
0.000248955
0.000248752
0.000247493
0.000247135
0.000246698
0.000246442
0.000246239
0.000246026
0.000245868
0.000246633
0.000247374
0.000247947
0.00024835
0.000248839
0.000249372
0.000250088
0.000250902
0.000252018
0.000253316
0.000255018
0.000256984
0.000259488
0.000262363
0.000265952
0.000270051
0.000275114
0.000280889
0.000287997
0.000296119
0.000306106
0.000317606
0.000331742
0.000348397
0.000369105
0.000394431
0.000426709
0.000467706
0.000522522
0.000599431
0.000706389
0.000886818
0.00114581
0.00154827
0.00226707
0.00309312
0.00437405
0.000263865
0.000263469
0.00026303
0.000262483
0.000262416
0.000261767
0.000261687
0.00026112
0.00026043
0.000260029
0.000260184
0.000259771
0.000259639
0.000259022
0.00025862
0.000258274
0.000257384
0.000257111
0.000257349
0.000256806
0.000256162
0.000255451
0.000254872
0.000254622
0.000253334
0.000252803
0.000252213
0.000252292
0.000252572
0.00025278
0.000253149
0.000253379
0.000253852
0.000254452
0.00025516
0.000255907
0.00025676
0.000257719
0.000258847
0.000260142
0.00026173
0.000263604
0.000265878
0.000268553
0.000271769
0.00027553
0.000280021
0.000285254
0.000291486
0.000298757
0.000307405
0.000317562
0.000329636
0.000344011
0.000361194
0.000382198
0.000407796
0.000440159
0.000481311
0.000535377
0.00061087
0.000717323
0.000876634
0.00113006
0.00148328
0.00203247
0.00289467
0.00382
0.00534945
0.000269481
0.00026887
0.000268299
0.0002678
0.00026721
0.000266291
0.000265976
0.000266057
0.000265573
0.00026528
0.000264496
0.000264443
0.000263746
0.000263576
0.000262682
0.000262412
0.000262283
0.000261896
0.000261387
0.000261141
0.000261125
0.000260887
0.000260598
0.000260135
0.000259969
0.000258824
0.000259211
0.000259963
0.000260715
0.000261399
0.000262071
0.00026269
0.000263373
0.000264123
0.000265005
0.000265999
0.000267148
0.000268472
0.000270018
0.000271795
0.000273926
0.000276425
0.000279401
0.000282876
0.000286989
0.000291779
0.00029743
0.000304009
0.000311778
0.000320837
0.000331581
0.000344165
0.000359206
0.000377046
0.000398708
0.000425203
0.000458183
0.000500589
0.000555829
0.000631477
0.000739331
0.000894053
0.00112772
0.00147394
0.00194408
0.00265132
0.00363656
0.00468185
0.00641168
0.000276354
0.000275883
0.000275665
0.000275057
0.000273892
0.000273486
0.000273691
0.000273377
0.000273224
0.000272744
0.000272243
0.00027187
0.000271545
0.000270931
0.000270447
0.000269267
0.000268853
0.000268299
0.000268434
0.000268661
0.000268918
0.000269148
0.000269495
0.000269772
0.000270174
0.00027043
0.000270862
0.000271395
0.000272002
0.000272663
0.000273393
0.000274166
0.000275059
0.00027607
0.000277253
0.000278601
0.00028015
0.00028194
0.000284011
0.000286381
0.00028918
0.000292445
0.000296284
0.000300747
0.000305979
0.00031206
0.000319183
0.00032748
0.000337217
0.000348607
0.000362042
0.000377887
0.000396809
0.000419528
0.000447419
0.000482082
0.000526401
0.000584662
0.000663155
0.000773674
0.000931983
0.00115824
0.00148933
0.0019449
0.00255144
0.00341226
0.00451121
0.00568091
0.00759184
0.000284186
0.000283748
0.000283734
0.000283488
0.000282923
0.000282421
0.00028204
0.000281585
0.000281166
0.000280748
0.000280376
0.000279606
0.000279771
0.000279069
0.000279316
0.000279339
0.000279507
0.000279569
0.00027971
0.000279936
0.000280258
0.00028065
0.000281137
0.000281673
0.000282277
0.000282913
0.000283604
0.000284354
0.000285169
0.000286062
0.00028704
0.000288112
0.000289344
0.000290743
0.000292356
0.000294189
0.000296279
0.000298676
0.000301432
0.000304563
0.000308223
0.000312469
0.000317421
0.000323162
0.000329852
0.000337611
0.000346666
0.000357196
0.00036953
0.000383968
0.000401036
0.000421308
0.00044577
0.000475649
0.000513081
0.000560727
0.000623509
0.000707939
0.000824614
0.000989663
0.00122137
0.00154409
0.00198941
0.00256782
0.00331859
0.00432311
0.00552595
0.00681338
0.00893488
0.000294001
0.000293969
0.000293619
0.000293349
0.000292594
0.000292299
0.000292334
0.000291473
0.000291296
0.000290523
0.000290017
0.000289964
0.000290283
0.000290681
0.00029123
0.000291778
0.000292365
0.000292948
0.000293536
0.000294135
0.000294763
0.000295424
0.000296133
0.000296887
0.000297698
0.000298562
0.000299497
0.000300505
0.000301605
0.000302815
0.000304137
0.000305617
0.000307305
0.000309223
0.000311413
0.000313896
0.000316707
0.000319912
0.000323573
0.000327716
0.000332505
0.00033804
0.000344446
0.000351852
0.000360434
0.000370376
0.000381941
0.000395412
0.00041122
0.000429863
0.000452108
0.000478976
0.000511971
0.000553328
0.000606327
0.000675735
0.000769211
0.000896514
0.00107292
0.00131626
0.00164538
0.0020836
0.0026532
0.00336201
0.00425618
0.0053933
0.00669064
0.0081014
0.0106248
0.000307904
0.000308225
0.000308402
0.000308743
0.00030793
0.000308039
0.000306844
0.000306447
0.000305947
0.000306569
0.000307095
0.000307423
0.00030779
0.000308254
0.000308832
0.000309485
0.000310194
0.000310946
0.000311733
0.000312555
0.000313415
0.000314321
0.000315278
0.000316295
0.000317382
0.000318547
0.000319811
0.000321174
0.000322673
0.000324314
0.000326115
0.000328145
0.00033044
0.00033304
0.000335983
0.000339304
0.000343047
0.000347291
0.000352116
0.000357558
0.000363799
0.000370989
0.000379281
0.000388856
0.00039994
0.000412809
0.000427833
0.000445464
0.000466368
0.000491378
0.000521769
0.000559285
0.000606458
0.000667145
0.000746533
0.000852558
0.000995725
0.00118919
0.00145023
0.0017948
0.00223979
0.00280372
0.00350126
0.00434249
0.00537379
0.00663539
0.00802148
0.0096075
0.0126382
0.000322313
0.000322569
0.000322935
0.000323458
0.000324003
0.000324621
0.000325082
0.000325674
0.000326162
0.0003268
0.000327496
0.000328194
0.000328925
0.000329712
0.000330568
0.000331485
0.000332456
0.000333476
0.000334542
0.000335658
0.000336827
0.000338061
0.000339364
0.000340754
0.000342238
0.000343836
0.000345565
0.000347436
0.000349493
0.000351724
0.000354197
0.000356972
0.000360085
0.000363595
0.000367541
0.000371971
0.00037695
0.000382571
0.000388944
0.000396127
0.000404322
0.000413755
0.00042464
0.000437242
0.000451903
0.000469057
0.000489304
0.000513399
0.000542476
0.000577974
0.000622125
0.000677892
0.000749604
0.00084339
0.000967009
0.00113156
0.00134905
0.00163405
0.0020015
0.00246331
0.00303355
0.00372511
0.00455039
0.00552183
0.00668552
0.00806931
0.00956138
0.0114562
0.0151184
0.000345975
0.00034663
0.000347194
0.000347719
0.000348293
0.000348968
0.000349724
0.000350582
0.000351496
0.00035248
0.000353523
0.000354607
0.000355733
0.000356904
0.000358127
0.000359401
0.000360728
0.00036211
0.000363551
0.000365056
0.000366637
0.000368303
0.000370069
0.00037195
0.000373963
0.000376134
0.000378476
0.000381024
0.000383805
0.000386831
0.000390207
0.000393977
0.000398188
0.000402921
0.000408221
0.000414159
0.000420834
0.000428357
0.000436891
0.000446547
0.000457554
0.000470276
0.000485047
0.000502302
0.000522609
0.000546714
0.000575652
0.000610766
0.000654045
0.000708016
0.000776482
0.00086422
0.00097791
0.00112596
0.0013181
0.00156677
0.00188261
0.00227902
0.00276551
0.00335127
0.00404783
0.00486428
0.00581663
0.00691614
0.00821787
0.00973862
0.0114069
0.0137666
0.0181246
0.000380505
0.000380947
0.00038148
0.000382044
0.000382667
0.000383382
0.000384208
0.000385149
0.000386197
0.000387345
0.000388585
0.000389905
0.0003913
0.000392769
0.000394311
0.00039593
0.00039763
0.000399417
0.000401298
0.000403284
0.000405387
0.000407621
0.000410008
0.000412559
0.000415309
0.000418272
0.000421483
0.000424983
0.000428778
0.000432967
0.000437628
0.000442823
0.000448618
0.00045512
0.000462398
0.000470553
0.00047975
0.000490143
0.000501975
0.000515483
0.000530965
0.000549009
0.000570212
0.000595337
0.0006254
0.000661735
0.000706196
0.00076115
0.000829975
0.000916768
0.00102731
0.00116817
0.00134787
0.00157562
0.00186108
0.00221527
0.00264519
0.0031624
0.00377046
0.00447994
0.00529936
0.00623861
0.00732205
0.00855579
0.0100269
0.0117364
0.0137576
0.0168716
0.022694
0.000422494
0.000423498
0.000424563
0.000425645
0.000426757
0.000427923
0.000429155
0.000430466
0.000431864
0.000433353
0.000434937
0.000436614
0.000438386
0.000440256
0.00044223
0.000444313
0.000446519
0.000448856
0.00045134
0.000453987
0.000456816
0.000459849
0.000463107
0.000466621
0.000470421
0.000474534
0.000479021
0.000483888
0.000489236
0.000495168
0.000501768
0.000509124
0.000517343
0.000526576
0.000536942
0.000548615
0.000561863
0.000576966
0.000594301
0.000614363
0.000637685
0.000665157
0.000697967
0.00073749
0.000785559
0.000844486
0.000917383
0.00100797
0.00112125
0.00126268
0.00143951
0.00165872
0.00192906
0.00225817
0.00265382
0.00312425
0.00367273
0.0043108
0.00503665
0.005868
0.0068074
0.00787618
0.00910782
0.0105069
0.0122301
0.0142645
0.0169493
0.0214156
0.0287229
0.000476437
0.000478085
0.000479825
0.00048161
0.000483443
0.000485337
0.000487292
0.000489314
0.000491413
0.000493598
0.000495879
0.000498263
0.000500761
0.000503382
0.000506138
0.000509044
0.000512119
0.000515384
0.000518859
0.000522572
0.000526554
0.000530833
0.000535452
0.000540445
0.00054586
0.000551767
0.000558184
0.000565244
0.00057308
0.000581799
0.000591534
0.000602433
0.000614688
0.000628539
0.000644223
0.000662082
0.00068258
0.000706273
0.000733851
0.000766225
0.000804532
0.000850118
0.000905044
0.000971715
0.00105306
0.00115251
0.00127441
0.00142345
0.00160559
0.00182636
0.00209312
0.00241123
0.0027885
0.00322939
0.00374024
0.00432674
0.00499034
0.00574521
0.00658464
0.00754117
0.00860572
0.00983427
0.011259
0.0129128
0.0150737
0.0176992
0.0217622
0.0279103
0.0410485
0.00055011
0.000552556
0.000555151
0.000557841
0.000560627
0.00056352
0.000566512
0.000569601
0.000572795
0.000576102
0.000579535
0.000583105
0.000586826
0.000590714
0.000594791
0.000599081
0.000603612
0.000608416
0.000613534
0.000619003
0.000624874
0.000631204
0.000638041
0.000645475
0.000653573
0.000662404
0.000672182
0.00068306
0.000695208
0.000708826
0.000724166
0.00074151
0.000761243
0.000783806
0.000809699
0.00083961
0.000874396
0.00091509
0.000962965
0.00101955
0.00108674
0.00116677
0.00126222
0.00137635
0.00151321
0.0016767
0.00187166
0.0021025
0.00237502
0.00269321
0.00306387
0.00348934
0.00397743
0.00452865
0.00515101
0.00584731
0.00662145
0.00749113
0.00844779
0.00954739
0.010766
0.0122344
0.0139503
0.0160804
0.0190278
0.0228952
0.0292875
0.0392943
0.0596191
0.00065339
0.000656894
0.000660641
0.000664566
0.000668677
0.000672987
0.00067749
0.000682183
0.000687076
0.00069218
0.000697512
0.000703089
0.00070893
0.000715061
0.000721513
0.000728321
0.00073553
0.000743187
0.000751355
0.000760104
0.000769508
0.000779679
0.000790726
0.000802736
0.000815997
0.000830733
0.000847185
0.000865645
0.000886454
0.000910027
0.00093686
0.000967528
0.00100276
0.00104337
0.00109029
0.0011447
0.001208
0.00128178
0.00136788
0.00146843
0.00158584
0.00172277
0.00188227
0.0020675
0.0022819
0.00252944
0.00281488
0.00314125
0.00351382
0.00393424
0.00440966
0.00493867
0.00553223
0.00618534
0.00691379
0.00771375
0.00860161
0.0095934
0.0106944
0.011985
0.0134474
0.0153224
0.0175431
0.0206514
0.0250844
0.0315622
0.0423671
0.0591102
0.0805198
0.000807548
0.000812911
0.000818654
0.000824703
0.000831071
0.000837782
0.000844835
0.000852236
0.000860002
0.000868159
0.000876736
0.000885765
0.000895287
0.000905352
0.000916023
0.000927372
0.00093949
0.000952485
0.000966479
0.000981647
0.0009981
0.00101612
0.00103609
0.00105827
0.00108304
0.00111077
0.00114196
0.00117714
0.00121695
0.0012621
0.00131342
0.00137186
0.00143853
0.00151457
0.00160131
0.00170031
0.00181327
0.00194205
0.00208869
0.00225539
0.00244452
0.00265855
0.00290015
0.00317193
0.00347686
0.00381736
0.0041967
0.00461762
0.00508606
0.00560103
0.00617264
0.00679435
0.00748578
0.00823216
0.00906831
0.00997339
0.0110002
0.0121433
0.0134726
0.0150607
0.0169961
0.019571
0.0228487
0.028027
0.0355289
0.0476165
0.0650314
0.0854826
0.102387
0.00104339
0.00105188
0.00106107
0.00107088
0.00108134
0.00109252
0.00110442
0.00111709
0.00113059
0.00114498
0.00116034
0.00117675
0.00119433
0.00121317
0.00123343
0.00125529
0.00127889
0.00130444
0.0013324
0.00136309
0.00139681
0.00143395
0.00147493
0.00152025
0.00157049
0.00162628
0.00168832
0.0017574
0.0018344
0.00192028
0.00201606
0.00212291
0.00224207
0.00237475
0.00252237
0.00268647
0.00286863
0.00307053
0.00329391
0.00354058
0.00381241
0.00411131
0.00443929
0.00479831
0.00519066
0.00561805
0.00608395
0.00658832
0.00713921
0.00773458
0.00839175
0.00909558
0.00988384
0.0107238
0.0116885
0.0127224
0.0139621
0.0153393
0.0171011
0.0192139
0.0221256
0.0259914
0.0319576
0.0414528
0.0559759
0.075839
0.097243
0.111402
0.118345
0.00145824
0.00147423
0.00149159
0.00151023
0.00153024
0.00155172
0.00157474
0.00159937
0.00162573
0.00165396
0.00168424
0.0017167
0.00175166
0.00178941
0.00183018
0.00187416
0.00192192
0.00197385
0.00203037
0.0020919
0.00215894
0.00223201
0.0023117
0.00239862
0.00249346
0.00259694
0.00270983
0.00283296
0.00296722
0.00311351
0.0032728
0.00344613
0.00363449
0.00383887
0.00406039
0.00430019
0.00455942
0.00483928
0.00514099
0.00546586
0.00581527
0.00619072
0.0065938
0.00702634
0.00749046
0.00798815
0.00852327
0.00909659
0.00971705
0.0103819
0.0111219
0.011908
0.0128117
0.0137717
0.0149264
0.0161764
0.0178007
0.0196333
0.0222431
0.0254253
0.0303839
0.0375556
0.0500472
0.0686033
0.0926314
0.114763
0.127265
0.126259
0.124976
0.00229415
0.00232404
0.00235643
0.00239124
0.00242863
0.00246878
0.00251181
0.0025579
0.00260723
0.00265998
0.00271693
0.00277854
0.00284504
0.00291673
0.00299393
0.00307706
0.00316626
0.00326193
0.00336453
0.00347458
0.0035926
0.00371914
0.00385478
0.00400009
0.00415568
0.00432215
0.00450011
0.00469017
0.00489295
0.00510905
0.00533907
0.00558366
0.00584331
0.00611854
0.00641008
0.00671855
0.00704469
0.00738935
0.00775346
0.00813823
0.00854496
0.00897544
0.00943137
0.00991579
0.0104307
0.0109809
0.0115694
0.0122025
0.012889
0.0136298
0.0144711
0.0153717
0.0164548
0.0176395
0.0191322
0.0208646
0.0232026
0.0260816
0.0303254
0.0362817
0.0462113
0.0626984
0.0872076
0.116993
0.137586
0.145936
0.145696
0.137053
0.128312
0.00399379
0.00404431
0.00409949
0.00415907
0.00422324
0.00429222
0.00436617
0.00444535
0.00453002
0.00462056
0.00471684
0.00481907
0.00492774
0.00504333
0.00516631
0.00529716
0.00543629
0.00558409
0.00574094
0.00590722
0.00608327
0.00626944
0.00646602
0.00667332
0.00689159
0.00712109
0.00736206
0.00761468
0.00787914
0.00815564
0.00844431
0.0087454
0.00905911
0.00938556
0.00972497
0.0100775
0.0104441
0.0108258
0.0112235
0.0116397
0.0120761
0.0125364
0.0130226
0.0135416
0.0140936
0.0146921
0.0153328
0.0160437
0.0168128
0.0176898
0.0187024
0.0198501
0.0212925
0.0230132
0.0251471
0.0280498
0.0317154
0.0373351
0.0453404
0.0597384
0.0817334
0.115682
0.147911
0.165099
0.166377
0.162378
0.1524
0.136137
0.11988
0.00730967
0.00738326
0.00746113
0.00754341
0.00763078
0.00772377
0.00782285
0.00792851
0.00804114
0.00816122
0.00828895
0.00842473
0.00856887
0.00872169
0.00888352
0.00905471
0.0092353
0.00942558
0.00962562
0.0098356
0.0100554
0.0102851
0.0105246
0.0107739
0.0110327
0.0113011
0.0115789
0.0118658
0.0121617
0.0124667
0.0127805
0.013103
0.0134348
0.0137746
0.0141229
0.0144815
0.0148537
0.0152398
0.0156424
0.0160672
0.0165164
0.0169988
0.0175155
0.0180785
0.0186865
0.0193758
0.0201054
0.020987
0.0219125
0.0231475
0.0245084
0.0263139
0.0285409
0.031497
0.0349472
0.0407062
0.0478379
0.0610128
0.0801185
0.113976
0.153237
0.182507
0.190325
0.188014
0.180382
0.164395
0.142789
0.119648
0.100988
0.0129176
0.0129878
0.0130639
0.0131452
0.0132328
0.0133268
0.0134285
0.0135383
0.0136556
0.0137817
0.0139156
0.0140595
0.0142124
0.014375
0.0145478
0.014731
0.0149226
0.0151244
0.0153354
0.0155568
0.0157856
0.0160238
0.0162696
0.0165244
0.0167866
0.0170567
0.0173348
0.0176176
0.0179083
0.0182057
0.0185104
0.0188226
0.0191437
0.0194726
0.0198095
0.020162
0.020531
0.0209196
0.0213335
0.0217839
0.0222719
0.022817
0.0234198
0.0240934
0.0248584
0.0257542
0.0266987
0.0280189
0.029365
0.0315742
0.0337048
0.0372148
0.041204
0.0468424
0.0543357
0.0677141
0.086067
0.116605
0.161068
0.196676
0.212465
0.212998
0.208834
0.19541
0.169634
0.141206
0.115558
0.0938656
0.0778774
0.0215735
0.0216141
0.0216626
0.0217189
0.0217843
0.0218577
0.0219399
0.0220313
0.0221297
0.022238
0.0223543
0.022482
0.0226174
0.0227623
0.0229156
0.0230793
0.0232495
0.0234288
0.0236142
0.0238094
0.024007
0.0242134
0.0244241
0.0246432
0.0248658
0.0250926
0.0253242
0.0255565
0.0257949
0.0260367
0.0262846
0.0265432
0.0268127
0.0271048
0.0274181
0.0277755
0.0281705
0.0286226
0.0291303
0.0297231
0.0303801
0.0311524
0.0320468
0.0330302
0.0343041
0.0356091
0.0372703
0.0397246
0.042654
0.0471289
0.0516061
0.0593953
0.0681665
0.0809541
0.102264
0.133352
0.176341
0.209983
0.230603
0.235724
0.233874
0.224138
0.195197
0.159783
0.12715
0.10093
0.0814546
0.0686848
0.0607586
0.0337087
0.0337642
0.0338211
0.0338801
0.0339443
0.0340169
0.0340901
0.0341655
0.0342482
0.0343343
0.0344351
0.0345333
0.0346386
0.0347512
0.0348725
0.0350067
0.0351485
0.0353051
0.0354661
0.0356377
0.0358107
0.0359917
0.0361705
0.0363621
0.0365414
0.0367307
0.0369338
0.0371477
0.0373761
0.0376138
0.0378879
0.0382044
0.038588
0.0390379
0.0395731
0.0401968
0.0409337
0.0417739
0.0427095
0.0438023
0.0449652
0.0463652
0.0479729
0.0497073
0.0522783
0.0541899
0.0588071
0.0659499
0.0746638
0.0841679
0.0966998
0.11341
0.133403
0.164381
0.197041
0.219443
0.237713
0.250363
0.250401
0.240315
0.208319
0.167362
0.126774
0.0945593
0.0753448
0.0664568
0.0621724
0.0581373
0.0562436
0.0601113
0.0603528
0.0603032
0.0604746
0.0606491
0.0609036
0.0607273
0.0608647
0.0610359
0.0611401
0.0614051
0.0610625
0.0611873
0.0613126
0.0614469
0.0616034
0.0617329
0.0619376
0.0621281
0.0622967
0.0624395
0.0625938
0.0626096
0.062881
0.0621647
0.0624276
0.0626484
0.062765
0.0628238
0.0628902
0.0632939
0.063788
0.0646613
0.0656249
0.0669119
0.06832
0.0702082
0.0720198
0.0743685
0.0766083
0.0796592
0.0830568
0.0872926
0.0922971
0.0971801
0.104786
0.111094
0.11691
0.125177
0.136751
0.151658
0.171127
0.193583
0.218206
0.238746
0.242519
0.236671
0.213626
0.17428
0.129947
0.0900788
0.0619559
0.0474387
0.0450117
0.0486645
0.0532488
0.0583588
0.0637081
0.0691564
0.188067
0.189744
0.191769
0.191945
0.192124
0.192288
0.192446
0.19259
0.19284
0.193013
0.1933
0.193348
0.193572
0.193638
0.193644
0.193613
0.193552
0.194752
0.195791
0.195669
0.195489
0.195388
0.195139
0.194808
0.194534
0.194048
0.193678
0.194536
0.19459
0.193784
0.193264
0.190553
0.189166
0.188898
0.185192
0.183264
0.182887
0.178506
0.17701
0.170363
0.166812
0.166149
0.1623
0.156252
0.148238
0.138452
0.127029
0.114266
0.100411
0.0862825
0.0727632
0.0618617
0.0542558
0.053135
0.0555909
0.0584094
0.0581142
0.0513334
0.0393053
0.0290703
0.0242538
0.024316
0.0318762
0.0425124
0.0558085
0.0714875
0.090358
0.113763
0.144612
0.000255286
0.000255796
0.000256475
0.000256684
0.00025718
0.000258023
0.000259246
0.00026024
0.000261153
0.00026187
0.000262477
0.000263167
0.000264689
0.000265752
0.000266337
0.000266426
0.000267384
0.000267696
0.000267456
0.000267136
0.00026691
0.000267759
0.000267807
0.00026834
0.00026854
0.000268479
0.000268602
0.000268133
0.000267798
0.000268496
0.000269137
0.000269583
0.000269367
0.000268061
0.000267373
0.000266436
0.000266194
0.000265755
0.000264986
0.000264521
0.000264171
0.000263806
0.000262942
0.000261229
0.000260106
0.000259189
0.000258094
0.000256512
0.000255676
0.000255223
0.000254975
0.00025468
0.000254038
0.000253643
0.00025304
0.000252324
0.000251619
0.000251055
0.000250224
0.000256956
0.000257533
0.000258149
0.000258773
0.000259809
0.00026052
0.000261189
0.000261738
0.000262398
0.000263098
0.000264021
0.000265353
0.000266577
0.000267073
0.000267263
0.000267803
0.000268597
0.000268647
0.000268078
0.000267846
0.000267971
0.000268572
0.000268629
0.000269084
0.000269144
0.000269067
0.000269164
0.000268687
0.000268293
0.000268886
0.000269522
0.000269959
0.00026972
0.000268463
0.000267844
0.000266885
0.0002665
0.000266175
0.000265427
0.000264856
0.000264463
0.000264229
0.000263655
0.000262428
0.000261177
0.00026016
0.000259406
0.000258049
0.000256698
0.000255899
0.000255535
0.00025533
0.000255009
0.000254724
0.000254374
0.000253882
0.000253532
0.0002533
0.000252943
0.000260342
0.00026085
0.000261369
0.000261877
0.000262425
0.000262812
0.000263359
0.00026401
0.000264874
0.000266026
0.000267377
0.000268287
0.000268703
0.000268701
0.000269182
0.000270001
0.000270272
0.00026992
0.000269444
0.000269453
0.000269758
0.00027007
0.000270022
0.000270463
0.000270403
0.000270456
0.000270329
0.00026983
0.000269466
0.00026996
0.000270607
0.000271053
0.00027078
0.000269491
0.000268787
0.000267857
0.000267346
0.000266966
0.000266453
0.00026573
0.000265268
0.000265031
0.000264715
0.000263961
0.000262889
0.000261781
0.000260975
0.000260089
0.000258849
0.000257617
0.0002568
0.000256458
0.000256203
0.000256004
0.000255806
0.000255538
0.000255004
0.000254778
0.000254254
0.000263754
0.000264161
0.000264619
0.000265089
0.000265523
0.000266107
0.000267002
0.000267872
0.00026912
0.000270252
0.000271035
0.000271363
0.00027131
0.000271566
0.000272367
0.000272742
0.000272765
0.000271924
0.000271665
0.000271757
0.00027185
0.000272186
0.000272357
0.000272666
0.000272537
0.000272381
0.000272316
0.000271755
0.000271387
0.000271694
0.000272296
0.000272609
0.000272343
0.000271254
0.000270561
0.000269658
0.000268933
0.000268557
0.00026813
0.000267447
0.00026686
0.00026656
0.000266302
0.000265882
0.000265138
0.000264218
0.000263353
0.000262615
0.000261628
0.000260491
0.000259506
0.000258729
0.000258138
0.000257776
0.000257493
0.000257267
0.000257023
0.000256851
0.000256644
0.000269344
0.000269476
0.000269886
0.000269946
0.000270693
0.000271628
0.00027235
0.000273448
0.00027442
0.000275098
0.000275386
0.000275334
0.000275314
0.000275544
0.000276325
0.000276505
0.000275551
0.000275115
0.000275132
0.000275196
0.000275294
0.00027547
0.000275435
0.000275598
0.000275325
0.00027543
0.000275039
0.000274427
0.000274085
0.000274264
0.000274789
0.000275049
0.000274762
0.000273762
0.000273064
0.000272206
0.000271396
0.000270924
0.000270524
0.000269946
0.00026932
0.000268889
0.000268617
0.00026831
0.00026784
0.00026718
0.000266431
0.000265772
0.000265115
0.000264217
0.000263399
0.0002627
0.000261975
0.000261303
0.000260784
0.000260355
0.0002601
0.000259865
0.000259629
0.000276368
0.00027625
0.000276696
0.00027676
0.000277161
0.000278138
0.00027911
0.000280152
0.000280681
0.000280749
0.000280527
0.000280408
0.000280338
0.000281225
0.000281558
0.000280354
0.000279753
0.000279384
0.000279347
0.000279452
0.000279764
0.000279481
0.00027945
0.000279648
0.000279649
0.000279185
0.000278827
0.000278178
0.000277794
0.000277865
0.000278294
0.000278483
0.000278171
0.000277249
0.000276529
0.000275719
0.000274841
0.000274256
0.000273833
0.000273351
0.000272733
0.000272203
0.000271845
0.000271566
0.00027123
0.000270806
0.00027024
0.000269693
0.000269203
0.000268546
0.000267966
0.000267378
0.000266781
0.000266252
0.000265763
0.000265291
0.000264893
0.000264614
0.000264339
0.000284213
0.000284146
0.000284057
0.00028488
0.000285794
0.000286817
0.00028737
0.000287531
0.000287148
0.000287148
0.000286938
0.000287563
0.000287913
0.000287935
0.000286449
0.00028586
0.000285405
0.000285338
0.000285516
0.000285577
0.000285117
0.000284994
0.000285198
0.000285161
0.000284458
0.000284363
0.000283779
0.000283049
0.000282594
0.000282595
0.000282899
0.000283003
0.000282666
0.000281811
0.000281062
0.000280303
0.000279407
0.000278723
0.000278241
0.000277798
0.000277287
0.000276728
0.000276305
0.000275994
0.000275687
0.000275361
0.000275018
0.00027462
0.00027426
0.000273735
0.000273283
0.000272705
0.000272105
0.000271691
0.000271319
0.00027097
0.000270523
0.000269871
0.000269887
0.000295957
0.000295851
0.000296406
0.000296409
0.000297001
0.000297396
0.000296927
0.000296914
0.000296888
0.000296953
0.000296768
0.000295951
0.000295663
0.000294625
0.00029387
0.000293455
0.000292955
0.00029288
0.000293072
0.000292553
0.000292349
0.000292599
0.000291938
0.000291636
0.000291601
0.000291032
0.000290245
0.000289506
0.000288938
0.000288839
0.000289014
0.000289015
0.000288645
0.000287843
0.000287037
0.00028629
0.000285421
0.000284638
0.000284059
0.000283591
0.000283138
0.000282657
0.000282211
0.000281827
0.00028148
0.000281135
0.00028074
0.00028045
0.000279971
0.000279794
0.000279252
0.000279157
0.000278831
0.000278319
0.000277893
0.00027764
0.000277394
0.000276572
0.000276331
0.000309548
0.000309436
0.000309342
0.000309298
0.000309163
0.000309128
0.00030882
0.000308697
0.000308488
0.000307408
0.000306569
0.000306009
0.000304867
0.000304113
0.000303244
0.000302613
0.000302609
0.000302935
0.00030293
0.000301996
0.000301996
0.000301078
0.000300869
0.000300928
0.000300036
0.000299339
0.000298541
0.000297666
0.000296984
0.000296768
0.000296812
0.000296693
0.000296286
0.000295506
0.000294677
0.000293899
0.000293093
0.000292291
0.000291619
0.000291086
0.000290595
0.000290173
0.00028968
0.000289288
0.000288823
0.00028862
0.000288155
0.000287927
0.000287304
0.000287164
0.000286608
0.000286271
0.000286035
0.000285879
0.000285331
0.000285181
0.000284943
0.000284647
0.000284471
0.000324919
0.00032545
0.000324495
0.000324973
0.000324597
0.000324413
0.000322879
0.000322696
0.000321527
0.000320611
0.000319145
0.000317887
0.000316838
0.000316358
0.000316317
0.000316462
0.000316368
0.000315929
0.000314627
0.00031389
0.000313444
0.000312972
0.000312857
0.00031177
0.000310918
0.000310343
0.000309219
0.000308267
0.00030743
0.000307071
0.00030695
0.000306687
0.000306218
0.000305412
0.00030454
0.000303702
0.000302883
0.000302081
0.000301335
0.000300708
0.000300108
0.000299677
0.000299101
0.000298813
0.000298261
0.000298028
0.000297456
0.000297343
0.000297173
0.000296695
0.000296371
0.000296142
0.000296066