/*--------------------------------*- C++ -*----------------------------------*\
| =========                 |                                                 |
| \\      /  F ield         | OpenFOAM: The Open Source CFD Toolbox           |
|  \\    /   O peration     | Version:  2312                                  |
|   \\  /    A nd           | Website:  www.openfoam.com                      |
|    \\/     M anipulation  |                                                 |
\*---------------------------------------------------------------------------*/
FoamFile
{
    version     2.0;
    format      ascii;
    arch        "LSB;label=32;scalar=64";
    class       volScalarField;
    location    "1700";
    object      k;
}
// * * * * * * * * * * * * * * * * * * * * * * * * * * * * * * * * * * * * * //

dimensions      [0 2 -2 0 0 0 0];

internalField   nonuniform List<scalar> 
76025
(
0.00191175
0.00190965
0.00190852
0.001907
0.0019052
0.00190391
0.00190185
0.00189919
0.00189592
0.00189348
0.00189177
0.00188966
0.00188796
0.00188608
0.00188527
0.00188178
0.00188077
0.00187559
0.00187724
0.00187363
0.00187498
0.00187472
0.00187328
0.0018696
0.00186689
0.00186508
0.00186483
0.00186205
0.00186431
0.00186136
0.00186002
0.00185787
0.00185651
0.00185469
0.00185802
0.00185283
0.00185388
0.00185492
0.00184939
0.00184977
0.00184548
0.00184682
0.00185024
0.00185674
0.00186281
0.00187155
0.00188118
0.00189328
0.00190723
0.00192633
0.00194805
0.00197679
0.00200767
0.00204636
0.00208616
0.00213301
0.00218042
0.00224317
0.00231343
0.00242117
0.00252534
0.0026855
0.00287739
0.00315821
0.00352789
0.0041184
0.00492246
0.00653953
0.00859239
0.0019267
0.00192402
0.0019206
0.00191835
0.0019175
0.00191411
0.00191493
0.00191427
0.0019125
0.00190991
0.00190747
0.00190419
0.0019001
0.0018971
0.00189493
0.00189292
0.00189088
0.00188887
0.00188822
0.00188663
0.0018859
0.00188183
0.00188075
0.00187931
0.001874
0.00187188
0.00187154
0.00186952
0.00186905
0.00186484
0.00186306
0.00186117
0.00186372
0.00185924
0.00185766
0.00185917
0.00186145
0.00186431
0.00186779
0.00187187
0.00187667
0.00188229
0.00188867
0.00189606
0.00190465
0.00191506
0.00192731
0.00194256
0.00196045
0.00198195
0.00200646
0.00203509
0.00206726
0.00210497
0.00214766
0.0021992
0.00226179
0.00233947
0.00243743
0.00255443
0.00270161
0.0028915
0.00313821
0.00346558
0.0039503
0.00469838
0.0058336
0.00786217
0.0102914
0.00194413
0.00193982
0.00193964
0.00193806
0.00193473
0.00193081
0.00192891
0.00192815
0.00192455
0.0019235
0.00192315
0.00192352
0.00192125
0.00191787
0.0019152
0.00191265
0.00191238
0.00190652
0.00190446
0.00190412
0.00190196
0.00190021
0.00189726
0.00189664
0.00189086
0.00188902
0.00189
0.00189066
0.00189044
0.00188272
0.00188307
0.00188356
0.00188419
0.00188578
0.00188753
0.00189044
0.0018939
0.00189791
0.00190242
0.00190751
0.00191327
0.00192
0.00192776
0.00193701
0.0019479
0.00196084
0.00197601
0.00199393
0.00201465
0.00203891
0.00206663
0.00209931
0.00213673
0.00218154
0.00223336
0.00229737
0.00237172
0.00246487
0.00257345
0.00271233
0.00288297
0.0031089
0.00341003
0.00383092
0.00448719
0.0054481
0.00692356
0.00918724
0.0116735
0.00195909
0.00195786
0.00195688
0.00195443
0.00195371
0.00195176
0.00194915
0.00194737
0.00194268
0.0019413
0.0019419
0.00193856
0.00193753
0.00193852
0.00193779
0.00193587
0.00193437
0.00193101
0.00192875
0.00192705
0.00192335
0.00192203
0.00191643
0.00191455
0.00191252
0.00191307
0.00190841
0.00191025
0.00191255
0.00191351
0.00191471
0.00191625
0.00191814
0.00192069
0.00192376
0.00192756
0.00193185
0.00193677
0.00194233
0.0019486
0.00195571
0.00196412
0.00197382
0.0019853
0.00199857
0.00201418
0.00203219
0.00205328
0.00207758
0.0021059
0.00213867
0.00217686
0.00222147
0.00227384
0.00233601
0.00240979
0.00249846
0.00260603
0.00273833
0.00290613
0.00311842
0.00340646
0.00379834
0.00436541
0.00522835
0.00644581
0.00825129
0.0106658
0.0132954
0.0019764
0.00197668
0.00197482
0.00197404
0.00197412
0.00197319
0.00197171
0.00196843
0.00196701
0.00196451
0.00196374
0.00195987
0.00195921
0.00195891
0.00195559
0.00195445
0.00195516
0.00195348
0.00195088
0.00194682
0.00194646
0.0019444
0.00194347
0.00193832
0.00193974
0.00194269
0.0019443
0.00194655
0.00194868
0.00195084
0.00195305
0.00195557
0.00195846
0.00196184
0.00196575
0.00197029
0.00197545
0.00198132
0.00198807
0.0019957
0.00200444
0.00201467
0.00202654
0.00204038
0.00205642
0.00207506
0.00209662
0.00212165
0.00215056
0.00218417
0.00222303
0.00226842
0.00232133
0.00238379
0.00245764
0.00254588
0.0026524
0.00278267
0.00294573
0.00315288
0.00342462
0.00379872
0.004317
0.00507931
0.0061831
0.00767294
0.00973509
0.0122281
0.0148554
0.00199922
0.00199692
0.00199613
0.00199698
0.00199822
0.00199663
0.00199698
0.00199359
0.00199266
0.00199264
0.00198892
0.00198762
0.00198737
0.00198649
0.00198186
0.00198048
0.00198105
0.0019809
0.00197893
0.00197493
0.00197481
0.00197494
0.001976
0.00197694
0.00197869
0.00198109
0.00198374
0.00198656
0.00198943
0.00199247
0.00199561
0.00199908
0.00200297
0.00200741
0.00201247
0.00201821
0.0020247
0.00203206
0.00204048
0.00205002
0.00206087
0.00207348
0.00208807
0.00210498
0.0021245
0.0021471
0.00217319
0.00220335
0.00223818
0.00227847
0.00232516
0.00237954
0.00244315
0.00251819
0.00260713
0.00271398
0.0028439
0.00300537
0.00321034
0.0034771
0.00383727
0.00433703
0.00503723
0.00603762
0.00739121
0.00912522
0.0113629
0.0138445
0.0164451
0.00203061
0.00202974
0.00202762
0.00202661
0.00202669
0.00202468
0.00202388
0.00202456
0.00202244
0.00202157
0.00202048
0.00201881
0.00201766
0.00201891
0.00201807
0.00201715
0.00201351
0.00201029
0.00201053
0.00201176
0.00201404
0.00201662
0.00201932
0.00202211
0.00202501
0.00202815
0.00203144
0.00203486
0.00203846
0.00204232
0.00204638
0.00205092
0.00205601
0.00206175
0.00206825
0.00207557
0.00208381
0.00209308
0.00210365
0.00211558
0.00212908
0.00214467
0.00216263
0.00218336
0.00220723
0.00223474
0.00226639
0.00230286
0.00234488
0.00239344
0.00244972
0.00251536
0.00259233
0.00268336
0.00279204
0.00292398
0.00308713
0.0032938
0.00356201
0.00391918
0.00440796
0.00508259
0.00600724
0.00725663
0.00883252
0.0107572
0.0130727
0.0154959
0.0179853
0.00206449
0.00206295
0.00206168
0.00206055
0.00205993
0.00205944
0.0020556
0.00205665
0.00205887
0.00206103
0.00206322
0.00206471
0.00206611
0.00206729
0.00206827
0.00206887
0.0020697
0.00206963
0.00207025
0.00207145
0.00207325
0.00207546
0.00207794
0.00208067
0.00208363
0.00208686
0.0020904
0.00209423
0.00209844
0.00210303
0.00210805
0.00211374
0.00212015
0.00212741
0.00213562
0.00214483
0.00215519
0.00216684
0.00218004
0.00219494
0.00221172
0.00223099
0.00225313
0.00227856
0.00230776
0.0023413
0.00237981
0.0024241
0.00247514
0.00253419
0.0026028
0.00268304
0.0027776
0.00289034
0.00302676
0.00319542
0.00340822
0.00368376
0.00404766
0.00453736
0.00520259
0.006093
0.00726086
0.00873293
0.0104854
0.0125271
0.0148426
0.0171539
0.0195092
0.00211479
0.00211456
0.0021149
0.00211519
0.00211649
0.00211331
0.00211473
0.00211571
0.00211699
0.00211853
0.0021204
0.00212227
0.00212419
0.0021261
0.00212802
0.00212987
0.00213185
0.00213378
0.00213578
0.00213797
0.00214042
0.00214314
0.00214612
0.00214938
0.00215293
0.00215684
0.00216112
0.00216582
0.00217102
0.00217671
0.00218304
0.00219022
0.0021983
0.00220742
0.00221772
0.00222925
0.0022422
0.00225674
0.00227318
0.00229176
0.00231262
0.00233647
0.00236381
0.00239514
0.00243104
0.00247221
0.00251946
0.00257382
0.00263653
0.00270925
0.00279411
0.00289401
0.00301309
0.00315725
0.00333535
0.00356005
0.00384938
0.00422922
0.00473254
0.00540262
0.00628258
0.00740599
0.00879518
0.0104385
0.0123058
0.0143868
0.0166361
0.0187836
0.0209525
0.00216991
0.00216992
0.00217022
0.00217058
0.00217151
0.00217228
0.00217366
0.0021754
0.0021775
0.00218007
0.00218296
0.00218601
0.00218914
0.00219234
0.00219559
0.00219889
0.00220228
0.00220574
0.00220928
0.00221294
0.00221677
0.0022208
0.00222506
0.00222961
0.00223448
0.00223975
0.00224544
0.00225164
0.00225841
0.00226578
0.002274
0.00228323
0.00229355
0.00230515
0.00231818
0.00233272
0.00234903
0.00236734
0.00238796
0.00241126
0.00243738
0.00246707
0.00250103
0.00253987
0.00258432
0.00263524
0.00269372
0.00276112
0.00283924
0.00293048
0.00303809
0.00316667
0.00332279
0.00351577
0.00375906
0.00407079
0.00447589
0.00500543
0.00569485
0.00658055
0.00768627
0.00902096
0.0105791
0.0123292
0.0142445
0.0162911
0.0184237
0.020346
0.0224656
0.00223071
0.00223173
0.00223346
0.00223564
0.0022382
0.00224112
0.00224434
0.00224776
0.00225148
0.00225542
0.00225962
0.00226403
0.0022686
0.00227327
0.00227805
0.00228291
0.00228787
0.00229293
0.0022981
0.00230341
0.0023089
0.0023146
0.00232056
0.00232683
0.00233347
0.00234056
0.00234814
0.00235635
0.00236516
0.00237481
0.0023855
0.00239741
0.00241066
0.00242547
0.00244205
0.00246051
0.00248117
0.00250434
0.00253035
0.00255971
0.00259263
0.00262985
0.00267235
0.00272091
0.00277653
0.0028404
0.00291412
0.00299975
0.00310009
0.00321897
0.00336161
0.00353539
0.00375044
0.00402072
0.00436488
0.00480631
0.00537364
0.00609622
0.00700103
0.00810527
0.00940902
0.0109015
0.0125606
0.0143506
0.016247
0.0181962
0.0201651
0.0218313
0.024132
0.00234105
0.00234187
0.00234281
0.00234418
0.0023461
0.00234856
0.0023515
0.00235484
0.00235853
0.00236254
0.00236688
0.00237152
0.00237642
0.00238158
0.00238698
0.00239261
0.00239847
0.00240459
0.00241095
0.0024176
0.00242455
0.00243184
0.00243953
0.00244766
0.00245632
0.00246554
0.00247546
0.00248613
0.0024976
0.00251024
0.0025242
0.00253966
0.00255681
0.00257591
0.0025972
0.00262085
0.00264726
0.00267685
0.00270999
0.0027473
0.00278925
0.00283649
0.00289047
0.00295235
0.0030236
0.00310614
0.0032025
0.00331605
0.0034513
0.00361442
0.00381358
0.00405992
0.00436785
0.00475585
0.00524593
0.00586227
0.00662893
0.00756362
0.00867594
0.00996184
0.0114055
0.0129866
0.0146767
0.0164427
0.0182581
0.0200601
0.0218189
0.0232956
0.0258485
0.00247439
0.00247622
0.00247826
0.00248054
0.00248313
0.00248611
0.00248944
0.00249309
0.00249704
0.0025013
0.00250586
0.00251074
0.00251595
0.00252147
0.00252735
0.00253358
0.00254019
0.00254721
0.00255466
0.00256256
0.00257096
0.00257991
0.00258945
0.00259966
0.00261059
0.00262235
0.00263506
0.00264871
0.00266366
0.00268013
0.00269832
0.00271846
0.00274076
0.00276556
0.00279315
0.00282379
0.00285796
0.00289623
0.00293914
0.00298747
0.0030421
0.00310389
0.00317474
0.00325675
0.00335231
0.00346457
0.00359766
0.00375698
0.00394961
0.00418479
0.0044742
0.00483261
0.00527723
0.0058276
0.00650305
0.0073204
0.00829073
0.00941544
0.0106879
0.0120911
0.0136037
0.0152027
0.0168592
0.0185436
0.020226
0.0218438
0.023371
0.0248061
0.027574
0.00262895
0.00263291
0.00263706
0.00264133
0.00264577
0.00265043
0.00265533
0.00266043
0.00266575
0.00267132
0.00267714
0.00268324
0.00268965
0.0026964
0.00270353
0.00271108
0.0027191
0.00272763
0.00273672
0.00274643
0.00275683
0.00276797
0.00277993
0.00279281
0.00280668
0.00282171
0.00283791
0.0028556
0.00287509
0.00289661
0.0029204
0.00294676
0.00297601
0.00300859
0.00304486
0.00308527
0.00313052
0.00318141
0.00323885
0.00330397
0.00337832
0.00346352
0.00356196
0.00367736
0.00381365
0.00397585
0.00417028
0.00440495
0.00468966
0.0050364
0.00545882
0.00597227
0.00659189
0.00733171
0.00820153
0.00920565
0.0103413
0.011598
0.0129607
0.0144083
0.0159199
0.0174729
0.0190397
0.0205944
0.0221061
0.0235182
0.0248514
0.0263807
0.0289986
0.0028198
0.00282557
0.0028317
0.00283802
0.00284457
0.00285139
0.00285845
0.00286575
0.0028733
0.00288111
0.00288921
0.00289762
0.00290638
0.00291552
0.00292508
0.00293512
0.00294572
0.00295693
0.00296884
0.00298153
0.00299509
0.00300963
0.00302524
0.00304206
0.00306027
0.0030799
0.00310134
0.00312495
0.00315102
0.00317985
0.00321184
0.00324738
0.00328698
0.0033313
0.0033809
0.00343657
0.00349943
0.00357076
0.00365213
0.00374545
0.00385317
0.00397835
0.00412446
0.00429654
0.004501
0.00474496
0.00503671
0.00538605
0.00580379
0.00630172
0.00689123
0.00758307
0.00838486
0.00930109
0.0103307
0.0114679
0.0127019
0.0140171
0.0153971
0.0168209
0.0182698
0.0197224
0.0211542
0.0225443
0.0238657
0.0250735
0.0263144
0.0280112
0.0311571
0.00306646
0.00307429
0.00308263
0.00309131
0.00310035
0.00310977
0.00311957
0.00312971
0.00314022
0.00315111
0.0031624
0.00317413
0.00318632
0.00319902
0.00321227
0.00322616
0.00324074
0.00325613
0.00327243
0.00328974
0.00330822
0.00332799
0.00334925
0.00337217
0.00339688
0.00342394
0.00345372
0.0034866
0.00352301
0.00356345
0.00360854
0.00365894
0.00371553
0.00377933
0.00385136
0.00393305
0.00402624
0.00413305
0.00425604
0.00439832
0.00456358
0.00475628
0.00498169
0.00524566
0.00555509
0.00591896
0.00634547
0.00684333
0.0074208
0.0080854
0.00884236
0.00969517
0.0106431
0.0116831
0.0128071
0.0140051
0.0152635
0.0165662
0.0178978
0.0192384
0.0205726
0.0218819
0.0231472
0.0243551
0.0254858
0.0265283
0.0278556
0.0299519
0.0347588
0.00339101
0.00340134
0.00341242
0.00342405
0.00343625
0.00344906
0.00346247
0.00347646
0.00349104
0.00350625
0.00352211
0.00353867
0.00355595
0.00357401
0.00359291
0.00361274
0.0036336
0.00365559
0.00367889
0.00370363
0.00373004
0.00375835
0.00378868
0.00382165
0.00385775
0.00389746
0.00394131
0.00398994
0.0040441
0.00410465
0.00417265
0.00424928
0.00433605
0.00443461
0.00454676
0.00467484
0.00482163
0.00499022
0.00518421
0.00540764
0.00566507
0.00596152
0.00630246
0.00669366
0.00714102
0.00765029
0.0082265
0.00887563
0.00960185
0.0104066
0.011289
0.0122473
0.0132756
0.0143674
0.015512
0.0166986
0.017913
0.0191402
0.0203663
0.0215737
0.0227526
0.0238898
0.0249736
0.0259972
0.0269598
0.0279733
0.0297514
0.0328943
0.0398492
0.0038328
0.00384692
0.0038621
0.00387811
0.00389499
0.0039128
0.00393153
0.00395116
0.00397173
0.00399331
0.00401593
0.00403967
0.0040646
0.0040908
0.00411837
0.00414746
0.00417822
0.00421083
0.00424557
0.00428265
0.00432236
0.00436555
0.00441272
0.00446446
0.00452146
0.00458454
0.00465463
0.00473283
0.00482038
0.00491874
0.00502956
0.00515467
0.00529629
0.00545666
0.00563822
0.00584394
0.00607701
0.00634081
0.00663896
0.00697526
0.0073536
0.00777794
0.00825211
0.00877976
0.00936402
0.0100075
0.0107117
0.0114773
0.0123029
0.0131866
0.0141259
0.0151171
0.0161515
0.0172226
0.0183183
0.0194286
0.0205383
0.0216344
0.0227062
0.0237408
0.0247385
0.0256899
0.0265896
0.0274455
0.0283644
0.0297981
0.0328327
0.037975
0.0454528
0.00444661
0.00446597
0.00448696
0.00450934
0.00453318
0.00455859
0.00458557
0.00461415
0.00464442
0.00467648
0.00471046
0.00474647
0.00478469
0.00482526
0.00486841
0.00491443
0.00496351
0.00501618
0.00507329
0.00513535
0.00520297
0.0052769
0.00535796
0.0054471
0.0055454
0.00565407
0.00577443
0.00590798
0.00605634
0.00622129
0.00640475
0.00660879
0.00683569
0.00708758
0.00736678
0.00767591
0.00801753
0.00839422
0.0088085
0.00926279
0.00975933
0.0103001
0.0108867
0.0115203
0.0122013
0.0129296
0.013704
0.0145228
0.0153822
0.0162786
0.0172054
0.0181565
0.0191266
0.0201113
0.0210963
0.0220716
0.0230197
0.0239355
0.0248133
0.0256506
0.0264568
0.0272154
0.0279585
0.0288035
0.030246
0.0332379
0.0384365
0.0450466
0.0514082
0.00535182
0.00538099
0.00541275
0.0054469
0.0054836
0.00552303
0.0055653
0.00561053
0.00565892
0.00571069
0.00576613
0.00582541
0.00588894
0.00595754
0.00603162
0.00611167
0.00619821
0.0062918
0.00639312
0.00650292
0.00662201
0.00675129
0.00689176
0.00704448
0.00721059
0.00739133
0.00758802
0.00780205
0.00803488
0.00828807
0.00856317
0.00886187
0.00918583
0.00953644
0.0099153
0.0103241
0.0107642
0.011237
0.0117435
0.0122846
0.0128609
0.0134726
0.0141195
0.0148009
0.0155155
0.0162617
0.0170366
0.0178374
0.0186596
0.0194982
0.0203476
0.0211984
0.022042
0.022884
0.0237004
0.024481
0.0252104
0.0259069
0.0265657
0.0272021
0.0278145
0.0284278
0.0292985
0.0309151
0.0344516
0.0400556
0.0468796
0.0517199
0.0551008
0.00678374
0.00683229
0.00688536
0.00694272
0.00700469
0.00707185
0.00714441
0.00722258
0.0073067
0.00739708
0.00749402
0.00759783
0.00770881
0.00782741
0.00795409
0.00808939
0.00823384
0.00838804
0.00855265
0.00872835
0.00891591
0.00911612
0.00932983
0.00955794
0.00980138
0.0100611
0.0103382
0.0106335
0.0109482
0.0112832
0.0116394
0.0120179
0.0124193
0.0128442
0.0132933
0.0137669
0.0142655
0.0147889
0.015337
0.0159095
0.0165057
0.0171247
0.0177652
0.0184258
0.0191045
0.0197986
0.0205048
0.0212193
0.0219385
0.0226553
0.0233659
0.0240495
0.0247126
0.0253623
0.0259365
0.0264467
0.0269044
0.0273755
0.0278176
0.0282984
0.028818
0.0298307
0.0319912
0.0364533
0.0431213
0.0502396
0.0542417
0.0562006
0.0568539
0.0093649
0.00944339
0.00952762
0.0096173
0.00971273
0.00981425
0.00992211
0.0100366
0.0101582
0.0102872
0.010424
0.010569
0.0107226
0.0108853
0.0110575
0.0112399
0.011433
0.0116374
0.0118536
0.0120823
0.0123241
0.0125796
0.0128493
0.0131338
0.0134337
0.0137494
0.0140813
0.0144299
0.0147954
0.015178
0.0155779
0.0159951
0.0164294
0.0168803
0.0173476
0.0178305
0.0183284
0.0188403
0.0193652
0.0199021
0.0204497
0.0210071
0.0215721
0.0221441
0.0227202
0.0232968
0.0238696
0.0244324
0.0249912
0.0255206
0.026021
0.0264548
0.0268202
0.0270833
0.0272791
0.0275293
0.0278243
0.0281825
0.0285332
0.0291989
0.0305191
0.0337391
0.0395458
0.0480186
0.0542546
0.0576061
0.0579451
0.0574517
0.0569058
0.013674
0.0137596
0.0138504
0.0139461
0.0140471
0.014154
0.0142672
0.0143871
0.0145144
0.0146497
0.0147935
0.0149464
0.0151092
0.0152822
0.015466
0.0156613
0.0158685
0.016088
0.0163202
0.0165655
0.0168242
0.0170963
0.0173821
0.0176816
0.0179946
0.0183212
0.018661
0.0190137
0.0193787
0.0197556
0.0201436
0.0205422
0.02095
0.021366
0.0217882
0.0222147
0.0226444
0.0230755
0.023507
0.0239388
0.0243689
0.0247986
0.0252225
0.0256473
0.0260604
0.0264606
0.0268302
0.0271691
0.0275191
0.02775
0.0279325
0.0279483
0.0279548
0.0278731
0.0278552
0.0280193
0.0282663
0.0287569
0.0296963
0.0319957
0.0364506
0.0449171
0.0534803
0.0584907
0.0604959
0.0608311
0.0596684
0.0581878
0.0554156
0.0196392
0.0196976
0.0197606
0.0198278
0.0198999
0.0199774
0.0200607
0.0201506
0.0202475
0.020352
0.0204647
0.0205861
0.020717
0.0208578
0.0210091
0.0211716
0.0213454
0.021531
0.0217285
0.0219382
0.0221599
0.0223932
0.0226378
0.0228934
0.0231596
0.0234358
0.0237212
0.0240144
0.0243144
0.0246202
0.0249296
0.0252449
0.0255551
0.0258632
0.0261636
0.0264592
0.0267445
0.0270179
0.0272861
0.0275514
0.0278037
0.0280523
0.028279
0.028527
0.0287174
0.0289079
0.0288991
0.0289312
0.0289593
0.028999
0.0289888
0.0288891
0.0286945
0.0283897
0.0283072
0.028548
0.0292883
0.0311323
0.0346832
0.0417086
0.0515939
0.0587478
0.0624861
0.0633041
0.0629055
0.0618437
0.0588139
0.0546121
0.0510016
0.0265159
0.0265255
0.0265367
0.0265495
0.0265638
0.0265818
0.0266024
0.0266283
0.02666
0.026696
0.0267383
0.0267864
0.026843
0.0269052
0.026976
0.0270568
0.027145
0.0272439
0.0273518
0.0274713
0.027601
0.0277356
0.027877
0.0280278
0.0281884
0.0283592
0.028533
0.0287114
0.0288866
0.0290633
0.0292336
0.0294378
0.0294795
0.0296233
0.0297384
0.0298788
0.0298644
0.0298895
0.0300049
0.0301093
0.0301367
0.0301028
0.030091
0.0302182
0.0301494
0.0301173
0.0302018
0.0301372
0.0300052
0.0297614
0.0293919
0.0292142
0.0287039
0.0287206
0.0292743
0.0309465
0.0341799
0.0399336
0.0492702
0.0575417
0.0627609
0.0647811
0.0651685
0.0644347
0.0615025
0.0568921
0.0523561
0.0481993
0.0455274
0.0333287
0.03326
0.0331846
0.0331252
0.0330357
0.0329934
0.032898
0.0328357
0.0328066
0.0327122
0.0326858
0.0325918
0.0325728
0.0324724
0.0323985
0.0323288
0.0322769
0.0322315
0.0321879
0.032164
0.0322017
0.0320931
0.0320418
0.0320194
0.0320706
0.0321335
0.0320821
0.0321535
0.0320496
0.0320044
0.0319613
0.0320586
0.0321669
0.0320044
0.0319138
0.0318502
0.0318746
0.0318206
0.0317517
0.0316996
0.031384
0.0312108
0.0310258
0.0308973
0.0309539
0.0309278
0.030783
0.0304267
0.03004
0.0295474
0.0289461
0.0290042
0.0296843
0.0312917
0.0348345
0.0403375
0.0481724
0.0557425
0.0608299
0.0648496
0.0664507
0.0660346
0.0627244
0.0568672
0.0511278
0.0465424
0.0435471
0.0419861
0.0421847
0.037471
0.0373668
0.0372591
0.0371483
0.0370344
0.0369184
0.0367884
0.0366638
0.0365169
0.036376
0.0362463
0.0360968
0.0359588
0.0357982
0.0356449
0.0355177
0.0353909
0.0352314
0.0351035
0.0348847
0.0347594
0.0346472
0.034401
0.034454
0.0342338
0.0342646
0.0342762
0.0342185
0.0341043
0.0339456
0.0337605
0.0335708
0.0334486
0.0332365
0.0330146
0.0327665
0.0325736
0.0323111
0.032312
0.0318194
0.0317549
0.031114
0.0308315
0.0309222
0.030758
0.0303828
0.0299601
0.0295863
0.0291822
0.0295038
0.0306976
0.0330435
0.0364212
0.0416843
0.0475947
0.0521569
0.0571145
0.0622027
0.0643444
0.0638379
0.0602273
0.0534864
0.0457943
0.039949
0.0364559
0.0353663
0.0360016
0.0379112
0.0409233
0.0372869
0.0371867
0.0370934
0.0369962
0.0368995
0.0367903
0.0366812
0.0365503
0.0364223
0.0362557
0.0361075
0.0359057
0.0357321
0.0355022
0.0352417
0.035095
0.0346897
0.034496
0.0342887
0.0341224
0.0341114
0.0341795
0.0340992
0.0339567
0.0337566
0.0335183
0.0332815
0.0329761
0.032723
0.0323355
0.0320388
0.0315215
0.0311813
0.030525
0.0301721
0.0293609
0.0290234
0.0286697
0.0290865
0.0283678
0.0286996
0.0288722
0.0288124
0.0289109
0.0284298
0.0284223
0.0288465
0.0299313
0.031455
0.0336008
0.036305
0.0397685
0.0438242
0.0482014
0.052508
0.0549502
0.0548756
0.0525613
0.047024
0.0396464
0.0311973
0.0236586
0.0195677
0.0189175
0.0212965
0.0247795
0.0289154
0.0336991
0.0392464
0.0279221
0.0280759
0.0283384
0.0283517
0.028386
0.0284217
0.0284642
0.0284986
0.0285973
0.0286487
0.028744
0.0287651
0.0288316
0.0288676
0.028873
0.0288827
0.028889
0.0289861
0.0291967
0.0291695
0.0291733
0.0291823
0.0291913
0.029199
0.0293153
0.0292584
0.0292393
0.0293951
0.0293089
0.0294321
0.0293178
0.0293297
0.0291023
0.0289911
0.0289642
0.0286006
0.0284231
0.028349
0.0280233
0.0276958
0.0273673
0.0266791
0.0265937
0.0261373
0.0254104
0.0244378
0.0232252
0.0217971
0.0201582
0.0183769
0.0165342
0.0148642
0.0135909
0.013032
0.0132736
0.0137889
0.0140253
0.0135175
0.0118364
0.00964903
0.00821765
0.00717003
0.00829088
0.0100709
0.0123597
0.0148371
0.0175475
0.0205411
0.0239757
0.00195507
0.0019562
0.00195768
0.00195757
0.00195757
0.00195853
0.00196039
0.0019623
0.00196283
0.00196313
0.00196352
0.00196547
0.00196997
0.00197448
0.00197542
0.00197425
0.00197523
0.00197704
0.00197671
0.00197701
0.00197714
0.00197966
0.00198053
0.00198387
0.00198435
0.00198531
0.00198758
0.00198754
0.00198627
0.00198837
0.00198917
0.00199101
0.00199058
0.0019863
0.00198397
0.00198022
0.00197968
0.00197821
0.00197492
0.001973
0.00196964
0.00196818
0.00196484
0.00195641
0.00195339
0.00194911
0.00194504
0.00193869
0.00193285
0.0019337
0.00193459
0.00193403
0.00193357
0.00193068
0.0019281
0.00192323
0.00191931
0.00191586
0.00191428
0.00196755
0.00196784
0.00196737
0.0019657
0.00196805
0.00196906
0.00197072
0.00197293
0.00197407
0.00197346
0.00197505
0.00197869
0.00198304
0.0019847
0.00198449
0.00198399
0.00198519
0.00198626
0.00198567
0.00198559
0.00198686
0.00198841
0.00198855
0.00199141
0.00199147
0.00199281
0.0019945
0.00199452
0.0019929
0.00199428
0.00199511
0.0019969
0.00199625
0.00199224
0.00199003
0.00198636
0.00198502
0.00198376
0.00198139
0.00197884
0.00197566
0.0019743
0.00197188
0.00196577
0.00196083
0.00195715
0.00195387
0.00194997
0.00194238
0.00193895
0.00193951
0.00193959
0.00194001
0.00193992
0.00193751
0.00193705
0.00193518
0.00193266
0.00192965
0.0019804
0.00198098
0.00197957
0.00198171
0.0019843
0.00198599
0.0019887
0.00198995
0.00198901
0.00198946
0.00199044
0.00199604
0.00199835
0.00199865
0.00199745
0.00199733
0.00199862
0.00199889
0.00199748
0.00199769
0.00199783
0.00199897
0.00200031
0.00200208
0.002002
0.00200352
0.00200463
0.00200447
0.00200274
0.00200319
0.00200422
0.00200568
0.00200483
0.00200108
0.00199881
0.00199529
0.00199334
0.00199198
0.00199015
0.00198802
0.00198467
0.00198314
0.00198129
0.00197779
0.00197204
0.00196788
0.00196501
0.00196206
0.00195793
0.0019511
0.00194722
0.00194661
0.00194853
0.00194897
0.00194854
0.00194857
0.00194885
0.00194825
0.00194652
0.00200428
0.00200635
0.00200809
0.00200846
0.0020087
0.00200915
0.00200965
0.00200907
0.00200819
0.0020113
0.0020155
0.00201704
0.00201523
0.00201461
0.00201454
0.00201471
0.00201642
0.00201416
0.00201306
0.00201357
0.00201524
0.00201536
0.00201539
0.00201675
0.00201669
0.00201809
0.0020186
0.00201831
0.00201618
0.00201607
0.002017
0.00201812
0.00201718
0.00201373
0.0020114
0.00200811
0.00200564
0.00200404
0.00200246
0.00200064
0.00199768
0.00199558
0.00199398
0.00199163
0.00198759
0.0019828
0.00197939
0.00197654
0.00197368
0.00196995
0.00196411
0.00196048
0.00195857
0.00195946
0.0019607
0.0019599
0.00195966
0.00195977
0.00196067
0.00203494
0.0020352
0.00203486
0.00203512
0.00203607
0.00203605
0.00203552
0.00203531
0.00203801
0.00203986
0.00204003
0.00203815
0.00203765
0.0020381
0.00203821
0.00203889
0.00203612
0.00203398
0.00203437
0.00203542
0.00203406
0.00203426
0.00203556
0.00203569
0.00203565
0.00203676
0.00203697
0.00203613
0.00203348
0.00203291
0.00203359
0.00203433
0.00203332
0.00203008
0.00202765
0.00202462
0.00202171
0.00201972
0.00201816
0.00201657
0.00201448
0.00201218
0.00201063
0.00200887
0.00200644
0.00200262
0.00199929
0.00199647
0.00199388
0.00199148
0.00198766
0.00198492
0.00198047
0.00197892
0.00197626
0.00197675
0.0019778
0.00197652
0.00197713
0.00207335
0.00207303
0.00207215
0.00207178
0.00207026
0.00207188
0.00207228
0.00207225
0.0020713
0.00207247
0.00207245
0.00207063
0.00207107
0.00206817
0.00206756
0.0020643
0.00206265
0.00206301
0.00206294
0.00206073
0.00206077
0.00206114
0.00205987
0.00206077
0.00206019
0.00206096
0.00206043
0.00205927
0.00205605
0.00205505
0.00205538
0.00205573
0.00205466
0.00205161
0.00204905
0.00204626
0.00204328
0.00204074
0.00203897
0.0020374
0.00203568
0.00203379
0.00203201
0.0020304
0.00202856
0.00202623
0.00202362
0.00202133
0.00201925
0.00201738
0.00201508
0.00201256
0.00200921
0.00200645
0.00200328
0.00200001
0.00199951
0.00200025
0.00200002
0.0021174
0.00211744
0.00211665
0.00211779
0.00211782
0.00211706
0.00211628
0.00211275
0.002112
0.00211069
0.00210874
0.00210722
0.0021045
0.00210128
0.0020999
0.00209721
0.00209657
0.00209515
0.00209331
0.00209328
0.00209379
0.00209152
0.0020924
0.00209097
0.00209005
0.00209129
0.00208989
0.00208822
0.00208439
0.00208295
0.00208284
0.00208272
0.00208148
0.00207851
0.00207569
0.00207293
0.00207009
0.00206728
0.00206511
0.00206335
0.00206187
0.00205995
0.00205853
0.00205664
0.00205522
0.00205306
0.00205131
0.00204855
0.00204741
0.00204459
0.00204362
0.00204072
0.00204022
0.00203799
0.00203523
0.00203071
0.0020297
0.00203001
0.00203079
0.00217593
0.00217297
0.00217376
0.00217289
0.00216812
0.00216444
0.00216221
0.00216024
0.00215835
0.00215684
0.00215449
0.00215157
0.00214799
0.00214564
0.0021426
0.00213922
0.00213748
0.00213671
0.00213785
0.00213439
0.00213435
0.00213473
0.00213118
0.00213012
0.00213052
0.00212926
0.00212747
0.00212503
0.00212062
0.00211872
0.0021181
0.00211746
0.00211603
0.00211305
0.00211008
0.00210724
0.00210445
0.00210166
0.00209917
0.00209699
0.0020954
0.00209334
0.00209205
0.00209005
0.00208902
0.00208682
0.00208606
0.00208424
0.00208143
0.00208044
0.0020799
0.00207738
0.00207758
0.00207464
0.00207382
0.00207053
0.0020689
0.00206802
0.00206551
0.00224387
0.00224084
0.00223765
0.00223379
0.00222916
0.00222507
0.0022214
0.00221839
0.00221464
0.00221086
0.00220629
0.00220218
0.00219833
0.00219563
0.00219385
0.00219291
0.00219237
0.00219284
0.00218789
0.00218761
0.00218609
0.00218134
0.00217921
0.00218057
0.00217716
0.00217646
0.00217373
0.00217056
0.00216549
0.00216305
0.0021618
0.00216052
0.00215874
0.00215557
0.00215234
0.00214928
0.00214637
0.00214353
0.00214088
0.00213845
0.00213667
0.00213466
0.00213349
0.00213142
0.00213071
0.00212865
0.002128
0.00212721
0.00212665
0.0021249
0.00212468
0.00212233
0.00212183
0.00212066
0.00211993
0.00211982
0.00211881
0.00211804
0.00211488
0.00230715
0.00230388
0.00230103
0.00229757
0.00229394
0.00229018
0.00228609
0.0022823
0.00227946
0.00227688
0.0022765
0.00227796
0.00227704
0.00227143
0.0022673
0.00226219
0.00225724
0.00225621
0.00225568
0.0022563
0.00224709
0.00224481
0.00224461
0.00224
0.00223814
0.00223599
0.00223234
0.00222819
0.00222243
0.00221937
0.0022174
0.00221544
0.00221325
0.00220984
0.0022064
0.00220314
0.00220008
0.00219708
0.00219415
0.00219139
0.00218907
0.00218682
0.00218522
0.00218353
0.00218203
0.00218061
0.00217801
0.00217734
0.00217634
0.0021747
0.00217418
0.00217369
0.00217207
0.00217147
0.00217138
0.00217036
0.0021708
0.00217021
0.00216974
0.00240553
0.00239876
0.00239293
0.00238698
0.00238302
0.00238176
0.00238254
0.00238294
0.00237604
0.00237164
0.00236764
0.00236469
0.00235783
0.00235353
0.00234661
0.00234416
0.00234552
0.00234428
0.00233748
0.00233148
0.00232507
0.00232146
0.00231751
0.00231581
0.00231283
0.00230891
0.00230447
0.0022993
0.00229275
0.00228891
0.00228603
0.00228319
0.00228037
0.00227649
0.00227266
0.00226905
0.0022657
0.00226248
0.00225934
0.00225639
0.00225382
0.00225173
0.00224985
0.00224831
0.00224721
0.0022473
0.00224724
0.00224494
0.00224637
0.00224364
0.00224188
0.00224093
0.00224063
0.00223992
0.00223642
0.0022358
0.0022321
0.00223092
0.00222997
0.00252313
0.00252621
0.00252091
0.00252574
0.00251808
0.00251616
0.00251175
0.00250219
0.00249554
0.00248386
0.00247738
0.0024672
0.00246259
0.00246134
0.00246273
0.00245822
0.00245167
0.00244747
0.00243939
0.00242976
0.00242292
0.00241848
0.0024194
0.00241216
0.00240713
0.0024022
0.00239647
0.00238989
0.00238238
0.00237758
0.00237368
0.00236988
0.00236638
0.00236206
0.00235788
0.00235395
0.00235025
0.00234664
0.00234311
0.00233983
0.00233695
0.00233474
0.00233356
0.00233376
0.00233355
0.00233382
0.00233444
0.00233463
0.00233572
0.00233658
0.00233726
0.00233826
0.00233906
0.00233996
0.0023404
0.00234125
0.00234118
0.0023434
0.00233921
0.00268909
0.00267787
0.00267365
0.00266679
0.00265988
0.00265262
0.00264637
0.00263687
0.00263075
0.00262194
0.00261709
0.00261432
0.00261623
0.00261433
0.00260402
0.00258983
0.00258211
0.00257158
0.0025601
0.00255053
0.00254724
0.00254503
0.00253701
0.00252828
0.00252361
0.00251742
0.00251014
0.00250223
0.00249367
0.00248767
0.00248243
0.00247735
0.00247281
0.0024678
0.00246297