/*--------------------------------*- C++ -*----------------------------------*\
| =========                 |                                                 |
| \\      /  F ield         | OpenFOAM: The Open Source CFD Toolbox           |
|  \\    /   O peration     | Version:  2312                                  |
|   \\  /    A nd           | Website:  www.openfoam.com                      |
|    \\/     M anipulation  |                                                 |
\*---------------------------------------------------------------------------*/
FoamFile
{
    version     2.0;
    format      ascii;
    arch        "LSB;label=32;scalar=64";
    class       volScalarField;
    location    "1700";
    object      nut;
}
// * * * * * * * * * * * * * * * * * * * * * * * * * * * * * * * * * * * * * //

dimensions      [0 2 -1 0 0 0 0];

internalField   nonuniform List<scalar> 
76025
(
0.00131581
0.00131479
0.00131617
0.00131581
0.00131624
0.00131648
0.00131656
0.00131833
0.00131883
0.00131798
0.001318
0.00131737
0.00131643
0.00131508
0.00131468
0.00131177
0.00131187
0.00130701
0.00131132
0.00130935
0.00131437
0.00131715
0.00132122
0.00132285
0.00132359
0.00133141
0.00133324
0.00133234
0.00132706
0.00132769
0.00132676
0.00131881
0.00131554
0.00131447
0.00132171
0.00131804
0.00132318
0.00132876
0.00132516
0.0013295
0.00132823
0.00133301
0.00134253
0.00135527
0.00136971
0.00138295
0.00139366
0.00140556
0.00141079
0.0014257
0.00143057
0.0014524
0.0014568
0.00148701
0.00149036
0.00152443
0.00152728
0.00156496
0.00158091
0.00164973
0.0016749
0.00176419
0.0018175
0.00197557
0.00207427
0.002381
0.0026301
0.00321462
0.0038334
0.00132422
0.00132303
0.00132139
0.00132102
0.0013217
0.00131873
0.00132172
0.00132322
0.00132443
0.00132445
0.00132456
0.00132274
0.00131986
0.00131846
0.00131818
0.00131843
0.0013183
0.00131795
0.00132212
0.00132262
0.00132449
0.00131614
0.00132046
0.00131679
0.00130938
0.00130993
0.00131151
0.00131198
0.00131299
0.00130965
0.00130849
0.00130777
0.00131359
0.00131023
0.00131081
0.00131598
0.00132216
0.00132921
0.00133702
0.00134563
0.00135562
0.00136767
0.00137812
0.0013903
0.00139851
0.00140758
0.00141392
0.00142438
0.00143258
0.00144583
0.00145678
0.00147287
0.00148683
0.00150625
0.0015233
0.00154751
0.00157219
0.00160589
0.00164926
0.00169096
0.00175849
0.00181888
0.00193481
0.00206642
0.00223129
0.00259838
0.00291225
0.00353409
0.00417521
0.0013391
0.001338
0.00133959
0.00133791
0.00133617
0.00133354
0.00133234
0.00133615
0.00133265
0.00133144
0.00133093
0.00133376
0.00133346
0.00133227
0.00133196
0.00133196
0.0013364
0.00133321
0.00133386
0.00133559
0.00133604
0.0013344
0.00133263
0.00133167
0.0013291
0.00132214
0.00132852
0.00132645
0.00132541
0.00131624
0.0013187
0.00132178
0.00132511
0.00132977
0.00133452
0.00134116
0.00134868
0.00135602
0.00136709
0.00137831
0.00138627
0.00139504
0.00140208
0.00141055
0.00141739
0.00142708
0.00143492
0.00144704
0.00145625
0.0014716
0.00148216
0.0015015
0.00151366
0.00153786
0.00155307
0.00158508
0.00160802
0.00165229
0.00168886
0.00175058
0.00181604
0.00190643
0.00204243
0.00219988
0.00244682
0.00285849
0.00319705
0.00384306
0.00434529
0.00134701
0.00134718
0.00134695
0.00134467
0.00134607
0.00134686
0.00134671
0.00134613
0.00134452
0.0013406
0.00134428
0.00133848
0.00133789
0.00134141
0.0013445
0.00134502
0.00134771
0.00134732
0.0013483
0.00135216
0.00134892
0.0013541
0.00134882
0.00134617
0.0013431
0.00134907
0.00134384
0.00134793
0.00134893
0.00134303
0.00135051
0.00135157
0.00135226
0.00135803
0.00136395
0.00137654
0.0013827
0.00138942
0.00139586
0.00140286
0.00140933
0.00141685
0.00142392
0.00143248
0.00144057
0.00145066
0.00146018
0.00147226
0.00148369
0.00149821
0.00151216
0.0015297
0.00154728
0.00156937
0.00159353
0.00162395
0.00165906
0.00170281
0.00175537
0.00182274
0.00190828
0.00202076
0.00218909
0.00238783
0.00270179
0.00314139
0.00348439
0.0041244
0.00448192
0.00135651
0.00135872
0.00135991
0.00136049
0.00136124
0.00136176
0.00136426
0.00136182
0.00136007
0.00136038
0.00136043
0.00135285
0.00135303
0.00135511
0.00135244
0.00135578
0.00135655
0.0013558
0.00135629
0.00135566
0.00135838
0.00135851
0.00136142
0.00135823
0.00136133
0.00137242
0.00137668
0.00138231
0.00138678
0.00139101
0.00139537
0.00139987
0.00139965
0.00140028
0.00140263
0.00140682
0.00141142
0.00141679
0.00142237
0.00142866
0.00143482
0.00144207
0.00144939
0.00145801
0.00146673
0.00147707
0.00148757
0.00150018
0.00151298
0.00152855
0.00154435
0.00156395
0.00158432
0.00161024
0.00163862
0.00167433
0.00171542
0.00176683
0.00183019
0.00191287
0.00202006
0.0021666
0.00237445
0.00261829
0.00300291
0.00342232
0.00376234
0.00435072
0.00454075
0.00136327
0.00136218
0.00136337
0.00136737
0.00136943
0.00137063
0.00137154
0.00136986
0.0013722
0.00137429
0.00136835
0.00136873
0.00136909
0.00137113
0.00136686
0.00136679
0.00137231
0.00137356
0.00136956
0.00136691
0.00137018
0.00137417
0.00137878
0.00138144
0.00139093
0.00139724
0.00140425
0.0014078
0.00141032
0.00141346
0.00141585
0.00141949
0.00142237
0.00142531
0.00142852
0.00143249
0.00143694
0.00144201
0.00144766
0.00145394
0.00146046
0.00146789
0.00147587
0.00148494
0.00149471
0.00150585
0.00151791
0.00153172
0.00154673
0.00156391
0.00158284
0.00160473
0.0016297
0.001659
0.00169367
0.00173448
0.00178496
0.00184684
0.00192716
0.00203244
0.00216939
0.00236
0.002605
0.00290317
0.00331475
0.00368727
0.00401442
0.00451579
0.00454994
0.00137711
0.00137905
0.00137911
0.0013803
0.00138346
0.00138547
0.00138603
0.00138653
0.00138615
0.00138648
0.0013891
0.00138708
0.00138917
0.00139179
0.00139535
0.00139552
0.00139117
0.00138877
0.0013918
0.00139483
0.00139807
0.00140294
0.00140826
0.00141466
0.00141963
0.00143033
0.00143283
0.00143351
0.00143444
0.0014361
0.00143813
0.00144112
0.00144451
0.00144847
0.00145277
0.0014576
0.00146288
0.00146865
0.00147502
0.00148204
0.00148934
0.00149756
0.00150654
0.00151669
0.00152781
0.00154043
0.00155427
0.00156998
0.00158722
0.00160695
0.00162887
0.00165454
0.00168376
0.00171872
0.00175966
0.00180965
0.00187203
0.00195055
0.00205443
0.00218915
0.00236526
0.00260045
0.00288
0.00321538
0.00361158
0.00392807
0.00422943
0.00461594
0.00454055
0.00138805
0.00138834
0.00138773
0.00138927
0.00139434
0.00139574
0.0013895
0.00139252
0.0013963
0.0014017
0.00140727
0.00141124
0.00141484
0.00141966
0.00142356
0.00143063
0.00143397
0.00143685
0.00143698
0.00143743
0.00143855
0.00144039
0.00144198
0.00144428
0.00144623
0.00144935
0.00145195
0.00145442
0.00145701
0.00145985
0.00146291
0.00146667
0.00147079
0.00147545
0.00148051
0.00148609
0.00149219
0.00149878
0.00150604
0.00151407
0.00152242
0.00153177
0.00154208
0.00155369
0.00156651
0.00158095
0.00159693
0.00161496
0.00163506
0.001658
0.00168409
0.00171449
0.00174985
0.00179217
0.00184282
0.00190624
0.001986
0.00208891
0.0022235
0.00239492
0.00261381
0.00288475
0.00318586
0.0035291
0.00387813
0.00413905
0.00439509
0.00466175
0.00451206
0.00141636
0.00141825
0.00141877
0.00142039
0.00142497
0.00142322
0.00142705
0.00143069
0.00143456
0.00143879
0.00144323
0.00144976
0.00145153
0.0014578
0.00145914
0.00146155
0.00146341
0.00146572
0.00146773
0.00146956
0.00147124
0.00147292
0.00147445
0.00147612
0.00147784
0.00147987
0.00148214
0.00148466
0.00148754
0.00149067
0.00149425
0.0014985
0.00150314
0.00150836
0.00151406
0.00152031
0.00152718
0.00153464
0.00154285
0.00155204
0.00156166
0.00157237
0.00158427
0.00159765
0.00161253
0.00162928
0.00164796
0.00166913
0.001693
0.00172046
0.00175205
0.00178914
0.00183297
0.00188615
0.00195137
0.00203424
0.00213885
0.00227388
0.00244445
0.00265439
0.00290851
0.00319696
0.00349951
0.00381905
0.00410688
0.004309
0.00450755
0.00466055
0.00442207
0.00144138
0.00144154
0.00144366
0.00144548
0.00145044
0.00145294
0.00145461
0.00146124
0.00146496
0.00147232
0.0014788
0.00148321
0.00148583
0.00148813
0.00148974
0.00149141
0.00149301
0.00149472
0.00149652
0.00149843
0.00150042
0.0015025
0.00150467
0.00150699
0.00150945
0.00151219
0.00151514
0.00151841
0.00152199
0.00152581
0.00153022
0.0015352
0.0015406
0.00154657
0.0015531
0.0015602
0.00156806
0.00157664
0.00158607
0.00159673
0.00160801
0.00162046
0.00163441
0.00165008
0.00166766
0.00168748
0.00170982
0.00173526
0.00176431
0.00179801
0.00183739
0.00188424
0.0019409
0.00201048
0.00209746
0.00220711
0.00234399
0.00251517
0.00272046
0.00296092
0.00323153
0.00351508
0.00379636
0.00406923
0.00429061
0.00442884
0.00456592
0.00459874
0.0042752
0.00145449
0.00145431
0.00145574
0.00145696
0.00146416
0.00146746
0.00147741
0.00148383
0.00149119
0.00149337
0.00149637
0.00150063
0.00150488
0.00150882
0.00151232
0.00151558
0.00151869
0.00152173
0.00152475
0.00152778
0.00153085
0.00153398
0.00153722
0.00154056
0.00154407
0.00154779
0.00155166
0.0015559
0.00156028
0.00156507
0.00157048
0.00157639
0.00158278
0.00158979
0.00159748
0.00160584
0.00161511
0.0016253
0.00163651
0.00164921
0.00166289
0.00167782
0.0016946
0.0017135
0.00173481
0.00175895
0.00178641
0.00181802
0.00185465
0.00189784
0.00194921
0.00201134
0.0020874
0.00218087
0.00229688
0.00243861
0.00261
0.00281264
0.00304179
0.00329428
0.00355732
0.0038149
0.00405547
0.0042682
0.00442086
0.00449092
0.00456234
0.0044647
0.00414709
0.00153033
0.0015302
0.00152969
0.001529
0.00152892
0.00152922
0.00153088
0.00153243
0.00153494
0.00153716
0.00153954
0.00154228
0.00154523
0.00154824
0.00155124
0.00155425
0.00155732
0.00156048
0.00156376
0.00156716
0.00157071
0.00157441
0.0015783
0.00158236
0.00158666
0.00159117
0.00159597
0.00160108
0.00160639
0.0016124
0.00161899
0.00162615
0.00163393
0.00164242
0.00165177
0.00166195
0.00167322
0.00168569
0.00169938
0.00171483
0.00173177
0.0017501
0.00177076
0.00179414
0.00182073
0.00185123
0.00188643
0.00192765
0.00197619
0.00203428
0.00210392
0.00218835
0.00229058
0.00241363
0.00256128
0.00273336
0.00293158
0.00315092
0.0033847
0.0036258
0.00385943
0.00407467
0.00426041
0.00440662
0.00448764
0.0044882
0.00448111
0.00426336
0.00397747
0.0015927
0.00159204
0.00159208
0.0015926
0.0015933
0.00159404
0.00159486
0.00159562
0.00159652
0.00159749
0.0015986
0.00159993
0.00160148
0.00160324
0.00160522
0.00160743
0.00160989
0.00161262
0.00161563
0.00161894
0.00162255
0.00162648
0.0016307
0.00163527
0.00164018
0.00164544
0.00165114
0.00165714
0.00166375
0.00167122
0.00167933
0.00168817
0.00169783
0.0017084
0.00172003
0.00173276
0.0017468
0.0017624
0.00177955
0.0017988
0.00182032
0.00184375
0.00187014
0.0019004
0.00193532
0.00197598
0.00202359
0.00207992
0.00214656
0.00222611
0.00232029
0.0024321
0.00256304
0.00271456
0.00288753
0.00307828
0.003286
0.00350086
0.00371752
0.00392613
0.00411464
0.00427624
0.00439789
0.00447473
0.00448027
0.0044096
0.00430952
0.00402285
0.0037755
0.00163474
0.00163776
0.00164063
0.00164351
0.00164636
0.00164909
0.00165163
0.00165393
0.00165605
0.00165804
0.00165996
0.00166189
0.00166389
0.001666
0.00166827
0.00167074
0.00167345
0.00167643
0.00167972
0.00168333
0.0016873
0.00169164
0.00169637
0.00170153
0.00170709
0.00171321
0.00171973
0.0017269
0.00173506
0.00174408
0.00175397
0.00176483
0.00177678
0.00178996
0.00180452
0.00182063
0.00183849
0.00185849
0.0018808
0.0019059
0.00193454
0.00196652
0.00200255
0.00204434
0.00209299
0.0021499
0.0022164
0.00229432
0.00238485
0.00249014
0.00261058
0.002748
0.00290145
0.00307044
0.00325287
0.00344291
0.00363864
0.00382816
0.00400962
0.00417057
0.00430428
0.00440438
0.00445584
0.0044615
0.0043863
0.00424149
0.00404019
0.00371242
0.00333491
0.00169379
0.0016967
0.00169979
0.00170304
0.00170645
0.00170997
0.00171352
0.00171704
0.00172051
0.00172393
0.00172733
0.00173073
0.00173416
0.00173767
0.00174128
0.00174504
0.00174898
0.00175315
0.00175757
0.00176229
0.00176734
0.00177277
0.00177861
0.0017849
0.00179174
0.00179907
0.00180711
0.00181629
0.00182653
0.00183783
0.00185032
0.00186417
0.00187957
0.00189675
0.00191593
0.00193742
0.00196158
0.0019889
0.0020199
0.00205507
0.00209543
0.00214153
0.00219352
0.0022528
0.00232104
0.00239946
0.00248877
0.00259022
0.00270374
0.00283054
0.00296908
0.00312004
0.00328011
0.00344789
0.00361934
0.00378846
0.00395356
0.00410206
0.00423624
0.00433962
0.00441296
0.00444475
0.00442201
0.00435351
0.00419139
0.00396656
0.00367687
0.00329743
0.00304179
0.00177628
0.00177921
0.00178239
0.0017858
0.00178944
0.00179332
0.00179739
0.00180162
0.00180599
0.00181049
0.00181511
0.00181984
0.0018247
0.0018297
0.00183484
0.00184017
0.0018457
0.00185147
0.00185752
0.00186389
0.00187063
0.0018778
0.00188546
0.00189369
0.00190248
0.00191223
0.00192327
0.00193557
0.00194919
0.00196431
0.00198118
0.00200007
0.00202129
0.00204522
0.00207221
0.00210276
0.00213742
0.00217677
0.0022215
0.00227227
0.00232976
0.00239496
0.00246789
0.00254861
0.00263736
0.00273582
0.00284354
0.00296099
0.0030868
0.00322151
0.00336189
0.00350845
0.00365603
0.00380397
0.00394681
0.00407994
0.00420166
0.00429916
0.00437834
0.00441715
0.00442625
0.00438197
0.00428291
0.00413432
0.00387808
0.00357854
0.00320897
0.00289286
0.00264895
0.00188127
0.00188437
0.00188781
0.00189152
0.00189556
0.00189992
0.00190461
0.00190961
0.00191493
0.00192056
0.0019265
0.00193275
0.0019393
0.00194615
0.00195331
0.00196079
0.0019686
0.00197678
0.00198535
0.00199437
0.0020039
0.00201403
0.00202474
0.00203641
0.00204935
0.00206388
0.00207988
0.00209757
0.00211725
0.00213922
0.00216386
0.00219158
0.00222284
0.00225811
0.00229786
0.0023426
0.00239288
0.00244917
0.00251187
0.00258137
0.00265783
0.00274139
0.00283223
0.00292982
0.00303294
0.00314153
0.00325422
0.00337214
0.00349369
0.00361898
0.00374355
0.00386886
0.00398795
0.00410233
0.00420421
0.00429185
0.00436141
0.00440135
0.00441901
0.00438741
0.00432764
0.00419844
0.00402366
0.00378269
0.00343784
0.00307601
0.00272004
0.00247831
0.00239715
0.0020235
0.00202756
0.002032
0.00203678
0.00204192
0.00204744
0.00205335
0.00205963
0.00206632
0.00207343
0.00208096
0.00208894
0.00209737
0.00210627
0.00211568
0.00212561
0.00213612
0.00214724
0.00215908
0.00217168
0.0021851
0.00219991
0.0022163
0.00223463
0.00225482
0.00227705
0.00230162
0.00232886
0.00235911
0.00239274
0.00243012
0.00247162
0.0025176
0.00256837
0.00262413
0.0026851
0.00275141
0.00282305
0.00289997
0.00298201
0.0030689
0.00316041
0.00325605
0.00335553
0.00345837
0.00356344
0.00366859
0.00377415
0.00387686
0.00397786
0.00407261
0.00416455
0.00424394
0.00431593
0.00436814
0.00440415
0.00441357
0.00439094
0.00433884
0.00423248
0.00409592
0.00387653
0.00362712
0.00328274
0.00288661
0.00253194
0.00228996
0.00219572
0.00230919
0.0022036
0.00220816
0.00221333
0.00221907
0.00222542
0.0022324
0.00224005
0.00224836
0.00225739
0.00226716
0.00227772
0.00228911
0.00230137
0.00231455
0.00232868
0.00234388
0.00236009
0.00237756
0.00239679
0.00241784
0.00244102
0.00246635
0.00249371
0.00252334
0.00255544
0.00259023
0.0026279
0.00266865
0.00271263
0.00276001
0.00281088
0.00286533
0.0029234
0.00298504
0.00305016
0.0031187
0.00319052
0.00326545
0.00334328
0.00342376
0.00350663
0.00359154
0.00367802
0.00376569
0.00385359
0.00394139
0.00402745
0.00411076
0.00418695
0.00425802
0.00431618
0.00436677
0.00439826
0.00442188
0.004417
0.00439609
0.00433552
0.0042461
0.00411301
0.00393179
0.00370655
0.00340612
0.003079
0.00266413
0.00231737
0.00208811
0.00204459
0.00213643
0.00232307
0.00247058
0.00247742
0.00248505
0.00249345
0.00250271
0.00251287
0.00252397
0.00253607
0.0025492
0.00256343
0.00257885
0.00259544
0.00261333
0.00263301
0.00265457
0.00267806
0.00270359
0.00273129
0.00276078
0.00279212
0.00282542
0.00286077
0.00289823
0.00293781
0.00297953
0.00302339
0.00306934
0.00311737
0.00316743
0.00321948
0.00327347
0.00332936
0.00338712
0.00344664
0.00350788
0.00357077
0.00363522
0.00370106
0.00376812
0.00383612
0.00390471
0.00397344
0.00404173
0.00410893
0.004174
0.00423632
0.00429362
0.00434643
0.0043893
0.00442378
0.00444036
0.00444651
0.00442404
0.00439501
0.00432508
0.00423968
0.00409684
0.00393794
0.00371415
0.00346602
0.00314696
0.00279834
0.00241746
0.00207505
0.00190836
0.00190404
0.002034
0.00216106
0.00230893
0.00284023
0.00284976
0.00286053
0.00287249
0.00288576
0.00290065
0.00291721
0.00293548
0.00295555
0.00297741
0.00300102
0.0030264
0.00305328
0.00308155
0.00311122
0.00314245
0.00317478
0.00320811
0.00324242
0.00327767
0.00331385
0.00335093
0.0033889
0.00342775
0.00346748
0.00350812
0.00354967
0.00359216
0.00363561
0.00368005
0.00372549
0.00377194
0.00381937
0.0038677
0.00391686
0.0039667
0.00401702
0.00406755
0.00411793
0.00416771
0.00421639
0.00426331
0.00430774
0.00434877
0.00438535
0.00441637
0.00443965
0.00445477
0.00445782
0.00444944
0.00441801
0.00437135
0.00429016
0.0042037
0.00405614
0.00389136
0.00365974
0.00343537
0.00313103
0.00283465
0.00245995
0.00213252
0.00184045
0.00174329
0.00180662
0.0019794
0.00208065
0.00225145
0.00232775
0.00344055
0.00345347
0.00346703
0.00348118
0.00349593
0.00351135
0.00352747
0.00354433
0.003562
0.00358059
0.00359939
0.00361818
0.00363707
0.00365615
0.00367551
0.00369516
0.00371549
0.0037366
0.00375853
0.00378129
0.00380491
0.00382941
0.0038548
0.0038811
0.00390833
0.00393648
0.00396556
0.00399556
0.00402645
0.00405818
0.00409067
0.00412381
0.00415745
0.00419137
0.0042253
0.00425888
0.00429171
0.00432327
0.00435301
0.00438036
0.00440461
0.00442505
0.00444072
0.00445072
0.00445402
0.00444833
0.00443221
0.00440277
0.0043611
0.00430066
0.00421103
0.00409762
0.00393436
0.00374246
0.00350055
0.00326906
0.00300299
0.00274073
0.00241622
0.00211489
0.001814
0.00163401
0.00161394
0.00177378
0.00192549
0.00204652
0.00207409
0.00216751
0.00227137
0.00421357
0.00421318
0.00421151
0.00420872
0.00420505
0.00420069
0.00419584
0.00419069
0.00418544
0.00418025
0.00417571
0.0041721
0.00416941
0.00416768
0.00416697
0.00416732
0.00416881
0.00417153
0.00417554
0.00418091
0.00418767
0.00419585
0.00420544
0.00421641
0.00422873
0.00424232
0.00425709
0.00427289
0.00428956
0.00430691
0.00432466
0.00434265
0.00436041
0.00437753
0.00439335
0.00440727
0.00441866
0.00442678
0.00443104
0.00443103
0.00442576
0.00441493
0.00439663
0.00437175
0.00433694
0.004289
0.00422543
0.00414085
0.00405389
0.00391783
0.00375463
0.00354153
0.00330315
0.00303834
0.00277694
0.002519
0.00226731
0.00199347
0.0017505
0.00154231
0.00146303
0.00156964
0.00174032
0.00186497
0.00197971
0.002051
0.00210255
0.00223836
0.00230548
0.0047489
0.00472957
0.00471017
0.00469054
0.00467062
0.0046504
0.00462989
0.00460919
0.00458844
0.00456774
0.00454729
0.00452726
0.00450788
0.0044893
0.0044717
0.00445529
0.00444019
0.00442654
0.00441443
0.00440397
0.00439519
0.004388
0.00438234
0.00437818
0.00437544
0.00437402
0.00437367
0.00437412
0.00437495
0.00437597
0.00437649
0.00437743
0.00437488
0.00437049
0.00436227
0.00435094
0.00433387
0.00431088
0.00428372
0.00425195
0.00421241
0.00416641
0.00410912
0.00405129
0.00397195
0.00388164
0.0037385
0.00358943
0.00344451
0.00326967
0.00308595
0.00285446
0.0025964
0.002303
0.0020636
0.00180191
0.00161383
0.0014297
0.00135129
0.00137366
0.00156342
0.00170195
0.00184635
0.0019183
0.00197436
0.00209384
0.00218026
0.00224345
0.00231816
0.00489863
0.00487567
0.00485136
0.00482601
0.0047992
0.00477181
0.00474304
0.00471373
0.00468441
0.00465407
0.00462391
0.00459307
0.00456285
0.00453217
0.00450194
0.00447261
0.00444406
0.00441674
0.00439054
0.00436598
0.00434343
0.0043207
0.00429891
0.00427853
0.00426011
0.0042436
0.00422687
0.00421118
0.00419355
0.00417564
0.00415521
0.00414355
0.00408561
0.0040559
0.00401796
0.00398508
0.00390967
0.0038435
0.00379808
0.00374547
0.00367009
0.00357434
0.00347962
0.003411
0.003291
0.00316977
0.0030748
0.00291739
0.00275935
0.00252474
0.00230677
0.00206402
0.00179964
0.00158485
0.00141948
0.00127288
0.00122165
0.00123085
0.00135644
0.00151515
0.00166853
0.00177323
0.00183028
0.00191221
0.00200686
0.00206298
0.00213489
0.0022275
0.00239539
0.00463401
0.00460629
0.00457514
0.00454695
0.00450886
0.00448222
0.00443962
0.00440449
0.00437712
0.00433077
0.0043013
0.00425231
0.00422192
0.00416922
0.00412251
0.00407567
0.00403285
0.00399074
0.00394869
0.0039105
0.00388742
0.00382835
0.00378318
0.00374433
0.00372267
0.0037035
0.0036579
0.0036408
0.00358388
0.0035406
0.00349776
0.00348482
0.00347312
0.00340108
0.0033432
0.00328704
0.00324592
0.00318382
0.00311481
0.00304268
0.0029179
0.00281423
0.00270337
0.0026012
0.00251378
0.00241758
0.00228824
0.00209746
0.00190407
0.00166722
0.00146124
0.00127471
0.00116339
0.00108858
0.00106792
0.00109815
0.00118437
0.00133177
0.00144415
0.00160566
0.00169926
0.00175094
0.00181402
0.00182152
0.0018503
0.00193162
0.00209529
0.0023099
0.002636
0.00374879
0.00372184
0.00369419
0.00366586
0.00363653
0.00360605
0.00357303
0.00354104
0.00350422
0.00346851
0.00343375
0.0033958
0.00335964
0.0033189
0.00327909
0.00324326
0.00320713
0.0031642
0.00312702
0.0030733
0.0030365
0.00300176
0.00294463
0.00293814
0.00288648
0.00287676
0.00286289
0.00283683
0.0028007
0.00275716
0.00270744
0.00265493
0.00260943
0.00254676
0.00247887
0.00240387
0.00233288
0.00224927
0.00220011
0.00208032
0.0020183
0.00187915
0.00178334
0.00173126
0.00162869
0.00153313
0.00137372
0.00119456
0.00102652
0.000930788
0.000877053
0.000866494
0.000894919
0.000951337
0.00103467
0.00111569
0.00123504
0.00139088
0.00148809
0.00152622
0.00156711
0.00153842
0.0014888
0.00151897
0.00158754
0.00169388
0.00187624
0.00222497
0.00267986
0.0020816
0.00206215
0.0020535
0.00203696
0.00202051
0.00200017
0.00199409
0.00197542
0.00195611
0.00193495
0.00191088
0.00190018
0.00187801
0.00185013
0.0018191
0.00179941
0.00175439
0.00172912
0.00170316
0.00168212
0.00167719
0.00167974
0.00167144
0.00165034
0.00164974
0.00161968
0.00159125
0.00155927
0.001534
0.0014963
0.0014596
0.0014019
0.00135328
0.00127786
0.00122448
0.00113562
0.00107982
0.00102716
0.00102385
0.000945403
0.000930587
0.000903289
0.000855902
0.000815038
0.000748537
0.000693836
0.000674123
0.000689669
0.000711373
0.000743037
0.000782184
0.000831767
0.0008929
0.000958288
0.00103934
0.00112056
0.00114513
0.00116391
0.00114192
0.00108864
0.000972418
0.000813087
0.000726424
0.00071556
0.000838778
0.00103781
0.00128942
0.0016043
0.00200452
0.0003731
0.000373887
0.00037689
0.000376898
0.000377461
0.000378085
0.000378905
0.000379539
0.000381676
0.000382706
0.000384686
0.000385153
0.000386489
0.000387324
0.000387456
0.000387779
0.000388069
0.000388276
0.000391849
0.000391362
0.000391825
0.000392271
0.000393012
0.000393887
0.000397591
0.00039704
0.000397281
0.000399754
0.000397302
0.000402317
0.000400271
0.000406296
0.000402951
0.000400447
0.000407703
0.000401713
0.000397558
0.000405194
0.000399287
0.000405224
0.000404091
0.000385557
0.000392176
0.000393494
0.000392017
0.000388212
0.000382172
0.000374218
0.000364221
0.000352261
0.000338141
0.000321443
0.000306402
0.000287663
0.000285245
0.000292966
0.00030464
0.000320356
0.000320798
0.000288244
0.000250587
0.00019028
0.000194079
0.000214718
0.000246351
0.000277146
0.000306693
0.0003338
0.00035775
0.00134753
0.00134641
0.00134487
0.00134362
0.00134104
0.00133797
0.00133418
0.00133168
0.00132773
0.00132451
0.00132198
0.00132113
0.00131955
0.0013203
0.00131865
0.00131665
0.00131323
0.00131411
0.00131484
0.00131682
0.00131811
0.00131728
0.0013182
0.00132003
0.00131968
0.00132126
0.00132368
0.00132595
0.0013259
0.00132526
0.00132316
0.00132342
0.00132391
0.00132465
0.00132495
0.00132457
0.00132505
0.00132528
0.0013247
0.00132446
0.00132169
0.00132157
0.0013214
0.00131868
0.0013203
0.00131917
0.00131923
0.00131872
0.00131507
0.00131857
0.00132107
0.00132182
0.00132453
0.00132264
0.00132224
0.00131931
0.00131762
0.00131583
0.00131803
0.00135592
0.00135329
0.00134941
0.00134387
0.00134171
0.00133943
0.00133825
0.00133844
0.00133662
0.00133224
0.00132972
0.00132793
0.00132764
0.0013274
0.00132618
0.00132283
0.00132053
0.00132171
0.00132371
0.00132476
0.00132583
0.00132493
0.00132484
0.00132641
0.00132619
0.00132835
0.00133013
0.00133252
0.0013323
0.00133121
0.00132918
0.0013294
0.00132972
0.00133059
0.00133069
0.00133056
0.00133069
0.00133062
0.00133119
0.00133063
0.00132832
0.00132766
0.00132729
0.00132525
0.00132491
0.0013251
0.00132451
0.00132616
0.00132278
0.00132223
0.00132488
0.00132605
0.0013283
0.00132966
0.00132818
0.00133012
0.00132939
0.00132715
0.00132488
0.00135583
0.00135398
0.00134937
0.00134967
0.00135037
0.00135067
0.00135155
0.00134991
0.00134424
0.00133902
0.00133357
0.00133654
0.00133756
0.00133797
0.00133398
0.00132977
0.00133016
0.00133224
0.00133271
0.00133296
0.00133164
0.00133161
0.00133363
0.00133382
0.00133401
0.00133578
0.00133788
0.00134015
0.00133964
0.00133779
0.00133597
0.00133571
0.00133592
0.00133729
0.00133776
0.00133768
0.00133762
0.00133769
0.00133781
0.00133858
0.00133639
0.00133553
0.00133463
0.00133371
0.00133138
0.00133137
0.0013316
0.00133212
0.00133288
0.00132993
0.00132886
0.00132979
0.00133374
0.00133538
0.00133583
0.00133727
0.00134045
0.00134082
0.0013412
0.00137075
0.00137147
0.00137148
0.00136955
0.00136764
0.00136525
0.00136135
0.00135614
0.00134867
0.00134718
0.0013489
0.00134933
0.00134718
0.00134508
0.00134103
0.00133942
0.00134158
0.00134271
0.00134252
0.00134275
0.00134451
0.00134302
0.00134222
0.00134251
0.00134306
0.0013457
0.00134669
0.00134908
0.00134806
0.00134639
0.00134467
0.00134461
0.00134467
0.00134545
0.00134577
0.00134587
0.00134618
0.00134592
0.00134594
0.00134692
0.0013459
0.00134458
0.00134372
0.00134268
0.00134099
0.00133917
0.00133897
0.00133886
0.00134002
0.00134079
0.00133791
0.00133696
0.00133743
0.00134052
0.00134369
0.00134377
0.00134472
0.00134577
0.0013481
0.00138369
0.00138336
0.0013808
0.00138085
0.00137832
0.00137355
0.0013692
0.00136341
0.00136219
0.0013613
0.00136011
0.00135786
0.00135729
0.00135676
0.00135307
0.00135309
0.00135409
0.00135338
0.00135382
0.0013549
0.00135261
0.00135201
0.00135392
0.00135329
0.00135457
0.00135553
0.00135774
0.00135965
0.0013578
0.00135615
0.00135447
0.00135418
0.00135425
0.00135487
0.00135507
0.00135529
0.00135543
0.00135512
0.00135503
0.00135579
0.00135612
0.0013552
0.00135448
0.00135367
0.00135275
0.00135093
0.00135024
0.00134976
0.0013496
0.00135094
0.00134993
0.00134979
0.00134747
0.00134883
0.00134787
0.00135077
0.00135352
0.001353
0.00135506
0.0013999
0.00140007
0.00139663
0.00139581
0.00139175
0.00138902
0.00138473
0.00137954
0.00137567
0.0013769
0.00137796
0.00137612
0.00137705
0.00136886
0.00136644
0.00136798
0.00136873
0.00137102
0.00137111
0.00136766
0.00136619
0.00136806
0.00136653
0.00136675
0.00136599
0.00136927
0.00137032
0.00137197
0.00136958
0.0013679
0.00136623
0.00136577
0.00136587
0.00136635
0.00136649
0.00136677
0.00136715
0.00136666
0.0013664
0.0013667
0.00136749
0.00136761
0.00136702
0.00136626
0.00136547
0.00136447
0.00136381
0.00136348
0.00136315
0.00136395
0.00136379
0.00136337
0.00136188
0.00136083
0.00135904
0.00135701
0.00135837
0.00136082
0.00136192
0.00141972
0.00142012
0.00141949
0.00141692
0.00141243
0.00140638
0.00140264
0.00139718
0.00139806
0.00139632
0.00139477
0.00138972
0.00138445
0.00138012
0.00138545
0.00138476
0.00138611
0.00138457
0.00138127
0.00138094
0.00138384
0.00138144
0.00138161
0.0013799
0.0013821
0.00138419
0.00138519
0.00138654
0.00138369
0.00138177
0.00138015
0.00137947
0.00137948
0.00137971
0.00137964
0.0013797
0.00138033
0.00137997
0.00137945
0.0013793
0.00137987
0.00138007
0.00138028
0.00137931
0.00137893
0.00137766
0.00137704
0.00137532
0.0013756
0.00137444
0.00137541
0.00137441
0.00137676
0.00137585
0.00137401
0.00136967
0.00137057
0.00137431
0.00137527
0.0014398
0.00143641
0.00143475
0.0014336
0.00142447
0.00141775
0.00141706
0.00141454
0.00141219
0.00140991
0.00140772
0.00140778
0.00140447
0.00140632
0.00140595
0.0014035
0.00140361
0.00140295
0.00140353
0.00140147
0.0014024
0.0014017
0.00140021
0.00140026
0.00140096
0.00140204
0.00140348
0.00140383
0.00140076
0.00139873
0.00139707
0.00139622
0.00139612
0.00139607
0.00139605
0.00139594
0.00139647
0.0013966
0.00139614
0.00139555
0.00139565
0.00139529
0.00139577
0.001395
0.00139535
0.00139411
0.00139506
0.00139407
0.00139268
0.00139224
0.00139421
0.00139131
0.00139321
0.00139183
0.00139286
0.00138971
0.00138875
0.0013917
0.00138953
0.0014639
0.00146047
0.00145675
0.00145194
0.00144657
0.00144142
0.0014381
0.00143478
0.0014309
0.00143104
0.00142903
0.00142631
0.00142666
0.00142668
0.00142845
0.0014302
0.00142951
0.00142859
0.00142218
0.0014262
0.00142422
0.00142236
0.00142057
0.00142206
0.00142184
0.00142423
0.00142445
0.00142448
0.00142109
0.00141892
0.00141707
0.00141597
0.00141557
0.00141514
0.00141487
0.00141459
0.00141464
0.00141477
0.00141452
0.0014139
0.00141394
0.00141332
0.00141419
0.00141335
0.00141468
0.00141295
0.00141436
0.00141443
0.00141674
0.0014151
0.00141757
0.00141609
0.0014166
0.0014158
0.00141755
0.00141814
0.00141797
0.00141841
0.00141506
0.00147441
0.00146784
0.00146851
0.00146195
0.00145903
0.00145507
0.00145676
0.00145276
0.00145442
0.00145527
0.00146147
0.00146913
0.0014728
0.00146779
0.00146264
0.00145539
0.00144946
0.00145015
0.00145546
0.00145968
0.00144985
0.00144909
0.00144937
0.00144845
0.00145001
0.00144991
0.00145043
0.00144951
0.00144594
0.00144365
0.00144166
0.00144035
0.00143971
0.00143906
0.00143868
0.0014384
0.00143828
0.00143817
0.0014379
0.00143727
0.0014371
0.0014362
0.00143686
0.00143603
0.0014367
0.00143596
0.0014353
0.00143496
0.00143445
0.00143461
0.00143548
0.00143594
0.00143417
0.00143353
0.0014365
0.00143588
0.00143781
0.00143768
0.00143992
0.00151092
0.00150755
0.00150436
0.00150027
0.00149919
0.00150149
0.0015079
0.00151323
0.00150885
0.00150623
0.0015003
0.00149896
0.0014975
0.00149493
0.00148683
0.0014864
0.00149063
0.00149588
0.00149225
0.00148648
0.00148122
0.00147956
0.00147916
0.0014815
0.0014804
0.00148116
0.00148076
0.00147935
0.00147562
0.00147309
0.00147078
0.00146906
0.00146795
0.00146691
0.00146621
0.00146567
0.00146529
0.00146493
0.00146451
0.00146381
0.00146378
0.00146306
0.0014636
0.00146286
0.00146435
0.00146571
0.00146707
0.0014649
0.00146866
0.00146546
0.00146526
0.00146434
0.00146479
0.00146443
0.00146048
0.00146058
0.00145619
0.00145405
0.00145438
0.00157211
0.00157949
0.00157486
0.00158354
0.00157639
0.00157683
0.00157443
0.00156533
0.00156017
0.00154849
0.00154325
0.00153491
0.00153268
0.00153556
0.00154175
0.00154109