/*--------------------------------*- C++ -*----------------------------------*\
| =========                 |                                                 |
| \\      /  F ield         | OpenFOAM: The Open Source CFD Toolbox           |
|  \\    /   O peration     | Version:  2312                                  |
|   \\  /    A nd           | Website:  www.openfoam.com                      |
|    \\/     M anipulation  |                                                 |
\*---------------------------------------------------------------------------*/
FoamFile
{
    version     2.0;
    format      ascii;
    arch        "LSB;label=32;scalar=64";
    class       volScalarField;
    location    "1700";
    object      p;
}
// * * * * * * * * * * * * * * * * * * * * * * * * * * * * * * * * * * * * * //

dimensions      [0 2 -2 0 0 0 0];

internalField   nonuniform List<scalar> 
76025
(
0.114573
0.11069
0.106735
0.102805
0.0988082
0.0947862
0.0905792
0.0864976
0.082328
0.0781838
0.0739677
0.0697213
0.065465
0.0612327
0.0569852
0.0527366
0.048564
0.0443455
0.0401883
0.0361514
0.0321474
0.028058
0.0240792
0.0202218
0.0164284
0.0127586
0.00910631
0.00550272
0.00214245
-0.00128104
-0.00444134
-0.00747026
-0.0103781
-0.0130429
-0.0155568
-0.0179017
-0.0200943
-0.0222589
-0.0240872
-0.025695
-0.0270402
-0.0282062
-0.0292466
-0.0298619
-0.0302092
-0.0303656
-0.0302909
-0.0298366
-0.0289963
-0.0279325
-0.0265615
-0.0248301
-0.0227079
-0.0201136
-0.0170622
-0.0136514
-0.00981338
-0.00556075
-0.00084917
0.00441003
0.0103869
0.0166747
0.0237509
0.0314687
0.039686
0.0480482
0.0570424
0.0678447
0.0780856
0.116103
0.111962
0.107812
0.103655
0.0994409
0.0951383
0.0908198
0.0864826
0.0820906
0.0776729
0.0732256
0.0687866
0.0643524
0.0599117
0.0554755
0.0510722
0.0466573
0.0423067
0.037958
0.0336986
0.029422
0.0252285
0.0211292
0.0171209
0.0131791
0.00932132
0.00554926
0.00193924
-0.00156253
-0.00496427
-0.0082038
-0.0113597
-0.0143215
-0.0170441
-0.019662
-0.0221082
-0.0244173
-0.0264863
-0.0282699
-0.0298651
-0.0312193
-0.0323788
-0.0332608
-0.0338036
-0.0341099
-0.0341653
-0.0339441
-0.0333513
-0.0324245
-0.0311932
-0.0296297
-0.0276846
-0.025317
-0.0224911
-0.0192016
-0.0154811
-0.011302
-0.00661322
-0.00140967
0.00437382
0.0108453
0.0178894
0.0256183
0.0340471
0.0431084
0.0527476
0.0629246
0.0743107
0.0849575
0.117708
0.113335
0.108946
0.10454
0.100072
0.0955481
0.0909803
0.0863728
0.0817357
0.0770748
0.0724047
0.0677347
0.0630621
0.0583918
0.0537361
0.0490891
0.0444698
0.039885
0.0353411
0.0308387
0.0263978
0.0220418
0.0177679
0.013577
0.00947488
0.00547226
0.00159271
-0.00216281
-0.00580216
-0.00930576
-0.0126695
-0.015878
-0.0189
-0.0217429
-0.0244232
-0.0269092
-0.0291787
-0.0312109
-0.0330142
-0.0345994
-0.0359433
-0.0370318
-0.0378431
-0.0383681
-0.0386146
-0.038565
-0.0382026
-0.0375009
-0.0364574
-0.0350612
-0.0332951
-0.031129
-0.0285292
-0.0254689
-0.0219303
-0.0179023
-0.013359
-0.00826469
-0.002587
0.00372589
0.010733
0.018442
0.0268876
0.0361048
0.0460728
0.0567872
0.0681246
0.0805166
0.0920743
0.119183
0.11455
0.109891
0.105219
0.10049
0.095697
0.0908531
0.0859771
0.0810819
0.0761715
0.0712497
0.0663203
0.0613888
0.0564633
0.0515543
0.0466687
0.0418176
0.0370078
0.0322485
0.0275478
0.022919
0.0183694
0.0139059
0.00953753
0.00527373
0.00112309
-0.00290495
-0.00680327
-0.0105614
-0.0141678
-0.0176128
-0.0208862
-0.0239811
-0.0268893
-0.0295987
-0.0320923
-0.0343604
-0.0364019
-0.0382124
-0.0397814
-0.041094
-0.0421352
-0.0428941
-0.0433585
-0.0435187
-0.0433662
-0.0428902
-0.042073
-0.0408968
-0.0393448
-0.0373996
-0.0350357
-0.0322224
-0.0289311
-0.0251353
-0.0208101
-0.0159271
-0.0104482
-0.00432975
0.00247864
0.01003
0.0183597
0.0275021
0.0374994
0.0483563
0.0601006
0.0725626
0.0861321
0.099128
0.120514
0.115598
0.110654
0.1057
0.10069
0.0956127
0.0904867
0.0853332
0.0801625
0.074978
0.0697825
0.0645819
0.0593851
0.0542012
0.0490398
0.0439102
0.0388205
0.0337795
0.0287963
0.023881
0.0190429
0.0142911
0.00963576
0.00508675
0.000653375
-0.00365523
-0.00782929
-0.011858
-0.0157316
-0.0194415
-0.0229788
-0.0263349
-0.0294999
-0.0324627
-0.0352117
-0.0377347
-0.0400254
-0.0420791
-0.0438878
-0.0454401
-0.0467229
-0.0477225
-0.0484272
-0.0488263
-0.0489106
-0.0486708
-0.0480937
-0.0471618
-0.0458562
-0.0441583
-0.0420474
-0.0394983
-0.0364821
-0.0329686
-0.0289267
-0.024324
-0.019124
-0.0132838
-0.00675412
0.000518216
0.00858883
0.0175088
0.0273256
0.0380853
0.0498106
0.0625438
0.0761254
0.0909948
0.105615
0.121744
0.116528
0.111286
0.106033
0.100725
0.0953488
0.089924
0.0844726
0.079006
0.0735284
0.0680439
0.0625593
0.0570836
0.0516266
0.0461977
0.0408061
0.035461
0.0301717
0.0249485
0.0198019
0.0147412
0.00977677
0.00491906
0.000178442
-0.00443494
-0.00891074
-0.0132386
-0.0174085
-0.0214112
-0.0252377
-0.0288782
-0.0323228
-0.0355611
-0.0385842
-0.0413805
-0.0439373
-0.0462483
-0.0483087
-0.0501113
-0.051645
-0.0528969
-0.0538539
-0.0545049
-0.05484
-0.0548499
-0.0545234
-0.0538469
-0.0528035
-0.0513746
-0.0495395
-0.0472758
-0.0445576
-0.0413558
-0.0376383
-0.0333698
-0.0285122
-0.0230226
-0.0168529
-0.00994831
-0.00224982
0.00630526
0.0157788
0.0262285
0.0377088
0.0502576
0.0639274
0.0785982
0.094772
0.111065
0.122841
0.117305
0.111745
0.106175
0.100548
0.0948519
0.0891071
0.0833375
0.0775556
0.071766
0.0659731
0.0601841
0.0544087
0.0486569
0.0429391
0.0372656
0.0316466
0.0260928
0.0206152
0.0152238
0.00992882
0.00474092
-0.000328896
-0.0052698
-0.0100709
-0.0147215
-0.0192111
-0.0235297
-0.0276668
-0.0316124
-0.0353564
-0.0388892
-0.0422011
-0.0452835
-0.0481243
-0.0507112
-0.0530395
-0.0551054
-0.0569019
-0.0584178
-0.0596399
-0.060556
-0.0611555
-0.061429
-0.0613669
-0.0609583
-0.0601893
-0.0590434
-0.0575013
-0.0555416
-0.0531406
-0.0502717
-0.0469048
-0.0430057
-0.038536
-0.033453
-0.0277083
-0.021248
-0.0140113
-0.00593241
0.00305902
0.0130338
0.0240587
0.0361993
0.0495074
0.0640453
0.0797426
0.0971361
0.114996
0.123753
0.117875
0.111974
0.106064
0.100097
0.0940588
0.0879734
0.0818658
0.0757488
0.0696273
0.0635061
0.0573932
0.0512983
0.0452328
0.0392086
0.0332369
0.0273288
0.0214957
0.0157484
0.0100978
0.00455536
-0.000867543
-0.00615951
-0.0113093
-0.0163058
-0.0211379
-0.0257947
-0.0302655
-0.0345396
-0.0386066
-0.0424566
-0.0460799
-0.0494674
-0.0526101
-0.0554959
-0.058114
-0.0604614
-0.0625344
-0.0643255
-0.0658233
-0.0670153
-0.0678901
-0.0684379
-0.0686505
-0.0685187
-0.0680319
-0.0671765
-0.0659359
-0.064291
-0.06222
-0.0596988
-0.0567
-0.0531922
-0.0491395
-0.0445006
-0.0392287
-0.0332708
-0.026567
-0.0190508
-0.0106496
-0.00128581
0.00911895
0.020641
0.0333609
0.0473438
0.0626685
0.0793057
0.0978074
0.117232
0.124456
0.118211
0.111945
0.10567
0.0993379
0.0929347
0.0864855
0.0800167
0.0735417
0.0670664
0.0605964
0.0541393
0.0477058
0.0413089
0.0349612
0.0286749
0.0224614
0.0163323
0.0102996
0.00437519
-0.00142862
-0.00709974
-0.0126262
-0.0179962
-0.023198
-0.0282201
-0.0330511
-0.0376801
-0.0420961
-0.0462888
-0.0502481
-0.0539643
-0.0574284
-0.0606313
-0.063561
-0.066209
-0.0685736
-0.070651
-0.0724334
-0.0739098
-0.0750688
-0.0759001
-0.0763958
-0.0765484
-0.0763497
-0.0757896
-0.0748548
-0.0735293
-0.0717942
-0.0696281
-0.0670067
-0.0639023
-0.0602824
-0.0561095
-0.0513398
-0.0459231
-0.0398024
-0.0329128
-0.0251828
-0.0165337
-0.00688245
0.00385752
0.0157749
0.0289687
0.0435194
0.0595374
0.0770266
0.0966181
0.117191
0.124912
0.118277
0.11162
0.104957
0.0982358
0.0914432
0.0846054
0.0777501
0.0708924
0.064039
0.0571953
0.05037
0.0435757
0.0368262
0.0301346
0.0235135
0.0169754
0.0105327
0.00419807
-0.00201567
-0.00809549
-0.0140285
-0.0198021
-0.0254037
-0.0308209
-0.0360417
-0.0410543
-0.0458473
-0.0504098
-0.0547311
-0.0588011
-0.0626103
-0.06615
-0.069411
-0.0723818
-0.0750565
-0.0774346
-0.0795124
-0.081282
-0.0827334
-0.0838564
-0.0846426
-0.0850854
-0.0851788
-0.0849157
-0.0842867
-0.0832798
-0.0818795
-0.080068
-0.0778243
-0.0751249
-0.0719418
-0.0682423
-0.0639875
-0.0591321
-0.0536232
-0.0474009
-0.040397
-0.0325365
-0.0237359
-0.0139067
-0.00295202
0.00923295
0.0227663
0.0377491
0.0543362
0.0725839
0.0933063
0.115151
0.12505
0.117999
0.110928
0.103852
0.0967174
0.0895109
0.0822597
0.0749935
0.0677284
0.0604716
0.0532298
0.0460132
0.0388351
0.0317101
0.0246522
0.017675
0.0107919
0.00401637
-0.00263808
-0.00915765
-0.0155286
-0.0217372
-0.0277702
-0.033614
-0.039256
-0.0446834
-0.049884
-0.0548461
-0.0595583
-0.06401
-0.0681912
-0.0720926
-0.0757058
-0.0790218
-0.08203
-0.0847272
-0.0871142
-0.0891871
-0.0909385
-0.0923593
-0.0934414
-0.0941783
-0.0945654
-0.0945985
-0.0942718
-0.0935775
-0.0925049
-0.09104
-0.0891664
-0.0868644
-0.0841111
-0.0808797
-0.0771375
-0.0728454
-0.0679574
-0.0624202
-0.0561723
-0.0491443
-0.0412582
-0.032427
-0.0225545
-0.0115308
0.000767143
0.0144739
0.0297181
0.0466968
0.065562
0.087216
0.109893
0.124808
0.117308
0.109792
0.102273
0.0946963
0.0870474
0.0793554
0.0716517
0.0639534
0.0562687
0.0486051
0.0409735
0.0333883
0.0258648
0.0184184
0.0110637
0.00381526
-0.00331248
-0.0103048
-0.017147
-0.0238245
-0.0303226
-0.0366272
-0.0427242
-0.0486
-0.0542415
-0.0596358
-0.0647709
-0.0696354
-0.0742183
-0.0785099
-0.0825011
-0.0861841
-0.0895498
-0.0925894
-0.0953026
-0.0976907
-0.0997503
-0.101475
-0.102857
-0.10389
-0.104571
-0.104898
-0.104867
-0.104476
-0.103719
-0.102586
-0.101066
-0.099145
-0.0968045
-0.0940239
-0.0907779
-0.0870354
-0.0827586
-0.0779027
-0.0724152
-0.0662354
-0.0592936
-0.0515096
-0.0427914
-0.0330328
-0.0221088
-0.00988077
0.00380365
0.019106
0.0362525
0.0554933
0.0776328
0.101727
0.124135
0.116156
0.108161
0.100165
0.0921118
0.0839867
0.0758211
0.0676477
0.0594852
0.0513425
0.043228
0.0351536
0.0271345
0.0191872
0.011328
0.0035728
-0.00406288
-0.0115634
-0.0189128
-0.0260954
-0.0330955
-0.0398976
-0.0464866
-0.0528478
-0.0589666
-0.0648293
-0.0704225
-0.0757339
-0.0807516
-0.085465
-0.0898643
-0.0939408
-0.097687
-0.101095
-0.104157
-0.106876
-0.109255
-0.111289
-0.112975
-0.114306
-0.115279
-0.115895
-0.116152
-0.116052
-0.115593
-0.114772
-0.113583
-0.112016
-0.110061
-0.107703
-0.104925
-0.101703
-0.0980093
-0.0938102
-0.0890636
-0.0837195
-0.0777189
-0.0709923
-0.0634565
-0.0550132
-0.0455453
-0.0349144
-0.0229684
-0.00952999
0.00559828
0.0226965
0.0420797
0.0642477
0.087499
0.122954
0.114462
0.105955
0.0974491
0.0888846
0.0802484
0.0715738
0.0628959
0.0542348
0.0456004
0.0370022
0.028453
0.0199692
0.0115685
0.00326856
-0.00491366
-0.0129613
-0.0208575
-0.0285853
-0.0361279
-0.0434683
-0.05059
-0.0574771
-0.0641136
-0.0704843
-0.0765748
-0.0823712
-0.0878608
-0.0930315
-0.0978726
-0.102375
-0.106529
-0.11033
-0.113768
-0.116841
-0.119553
-0.121906
-0.1239
-0.12553
-0.126793
-0.127691
-0.128226
-0.128401
-0.128221
-0.127686
-0.126798
-0.125554
-0.123948
-0.121974
-0.119622
-0.116878
-0.113725
-0.110139
-0.10609
-0.101542
-0.0964481
-0.0907509
-0.0843806
-0.0772507
-0.0692578
-0.0602757
-0.0501574
-0.0387364
-0.0258067
-0.0111359
0.00564531
0.0249305
0.0472404
0.0713002
0.121144
0.112102
0.103048
0.0939972
0.084887
0.0757048
0.0664863
0.0572688
0.0480741
0.0389135
0.0297972
0.0207396
0.0117584
0.00287288
-0.00589815
-0.0145362
-0.0230231
-0.0313406
-0.0394703
-0.0473942
-0.0550941
-0.0625523
-0.0697516
-0.0766752
-0.0833069
-0.0896316
-0.0956349
-0.101303
-0.106625
-0.111589
-0.116186
-0.120408
-0.12425
-0.127704
-0.13077
-0.133456
-0.135764
-0.137694
-0.139245
-0.140419
-0.141219
-0.141653
-0.141727
-0.14145
-0.140829
-0.139866
-0.138565
-0.136927
-0.13495
-0.132629
-0.129957
-0.126923
-0.123509
-0.119692
-0.115437
-0.110704
-0.105437
-0.0995672
-0.093007
-0.085651
-0.0773682
-0.0680056
-0.0573795
-0.0452658
-0.0314036
-0.0153958
0.00303705
0.0242913
0.0478045
0.11858
0.108948
0.0993078
0.0896729
0.0799784
0.070212
0.0604114
0.0506167
0.0408511
0.0311271
0.0214565
0.011855
0.00234177
-0.00706241
-0.0163369
-0.0254617
-0.0344171
-0.0431832
-0.0517402
-0.0600685
-0.0681485
-0.0759613
-0.0834881
-0.0907111
-0.097613
-0.104178
-0.110391
-0.116237
-0.121706
-0.126785
-0.131466
-0.135742
-0.139607
-0.143056
-0.146094
-0.148729
-0.150964
-0.152802
-0.154244
-0.155298
-0.155972
-0.156277
-0.156226
-0.155832
-0.155106
-0.154059
-0.152698
-0.151033
-0.149067
-0.146804
-0.144242
-0.141378
-0.1382
-0.134689
-0.130818
-0.126549
-0.121834
-0.116606
-0.110784
-0.104261
-0.0969053
-0.0885588
-0.0790247
-0.0680762
-0.0554292
-0.0407284
-0.0238147
-0.00453247
0.0156292
0.115109
0.104843
0.0945711
0.0843087
0.0739872
0.0635941
0.0531697
0.0427564
0.0323792
0.0220519
0.0117878
0.00160406
-0.00847839
-0.018437
-0.0282494
-0.0378938
-0.0473486
-0.0565925
-0.0656039
-0.0743614
-0.0828438
-0.0910302
-0.0989006
-0.106436
-0.113617
-0.120428
-0.126851
-0.132874
-0.138483
-0.143667
-0.148417
-0.152728
-0.156594
-0.160013
-0.162992
-0.165542
-0.167669
-0.169376
-0.170672
-0.171567
-0.172077
-0.172219
-0.172011
-0.171472
-0.170621
-0.169473
-0.168046
-0.166353
-0.164409
-0.162222
-0.1598
-0.157144
-0.154249
-0.151105
-0.147693
-0.143981
-0.139931
-0.135486
-0.130568
-0.125079
-0.118888
-0.111842
-0.103755
-0.094413
-0.0835254
-0.0707917
-0.0560232
-0.039151
-0.021053
0.110559
0.0996101
0.0886595
0.0777219
0.0667259
0.0556588
0.0445634
0.0334847
0.0224495
0.0114734
0.000571173
-0.0102382
-0.0209318
-0.0314852
-0.0418742
-0.0520751
-0.0620644
-0.0718188
-0.0813146
-0.0905281
-0.0994363
-0.108017
-0.116247
-0.124108
-0.131578
-0.138639
-0.145274
-0.151468
-0.157207
-0.162481
-0.167282
-0.171602
-0.17544
-0.178794
-0.181678
-0.184102
-0.186074
-0.187604
-0.188705
-0.189394
-0.189694
-0.189628
-0.189223
-0.188503
-0.187494
-0.18622
-0.184706
-0.182972
-0.181041
-0.17893
-0.176654
-0.174222
-0.171639
-0.168903
-0.166007
-0.162932
-0.15965
-0.156115
-0.152263
-0.148007
-0.143238
-0.137841
-0.131682
-0.124563
-0.116182
-0.106211
-0.0944007
-0.0805821
-0.065444
0.104674
0.0929905
0.081309
0.0696452
0.0579238
0.0461321
0.0343155
0.0225214
0.0107788
-0.000894849
-0.0124831
-0.0239651
-0.0353159
-0.046509
-0.0575179
-0.0683168
-0.0788797
-0.0891809
-0.0991943
-0.108894
-0.118255
-0.127253
-0.135863
-0.144062
-0.15183
-0.159145
-0.16599
-0.172347
-0.178204
-0.183548
-0.188372
-0.192671
-0.196442
-0.19969
-0.202431
-0.204677
-0.206439
-0.207733
-0.208578
-0.209
-0.209027
-0.208692
-0.208027
-0.207067
-0.205844
-0.204392
-0.202743
-0.200928
-0.198975
-0.196913
-0.194764
-0.192548
-0.190283
-0.187978
-0.185638
-0.183259
-0.180827
-0.178311
-0.175674
-0.172867
-0.16985
-0.166589
-0.162995
-0.158821
-0.153703
-0.14724
-0.139033
-0.12868
-0.116654
0.0971776
0.0847025
0.072233
0.0597857
0.0472813
0.034707
0.0221109
0.00954311
-0.00296492
-0.0153936
-0.0277241
-0.039933
-0.0519929
-0.0638751
-0.0755506
-0.086991
-0.098168
-0.109053
-0.119618
-0.129835
-0.139675
-0.149112
-0.158119
-0.166671
-0.174744
-0.182316
-0.189366
-0.195878
-0.201835
-0.207228
-0.212047
-0.216289
-0.219951
-0.223044
-0.225585
-0.227588
-0.229069
-0.230048
-0.230554
-0.23062
-0.230283
-0.229584
-0.228566
-0.227271
-0.225744
-0.224027
-0.222163
-0.220193
-0.218155
-0.216086
-0.214018
-0.211984
-0.210014
-0.208129
-0.206351
-0.204688
-0.203149
-0.201741
-0.200488
-0.199436
-0.198634
-0.198083
-0.197609
-0.196886
-0.195492
-0.192999
-0.18876
-0.182047
-0.172931
0.0875674
0.0742338
0.0609102
0.047616
0.0342667
0.0208492
0.00741398
-0.00598591
-0.0193167
-0.0325562
-0.0456829
-0.0586711
-0.071491
-0.0841114
-0.096501
-0.108629
-0.120464
-0.131975
-0.14313
-0.153899
-0.16425
-0.174153
-0.183579
-0.1925
-0.200889
-0.208722
-0.215976
-0.222631
-0.228671
-0.234082
-0.238857
-0.242988
-0.246477
-0.249338
-0.251588
-0.253245
-0.25433
-0.254873
-0.254911
-0.254487
-0.253649
-0.252449
-0.25094
-0.249178
-0.247218
-0.245115
-0.242922
-0.240691
-0.238468
-0.236299
-0.234227
-0.232293
-0.230538
-0.228998
-0.227709
-0.22671
-0.226062
-0.225871
-0.226258
-0.227353
-0.229169
-0.231594
-0.234346
-0.237126
-0.239529
-0.240862
-0.240133
-0.236558
-0.229859
0.0754026
0.0611566
0.0469249
0.0327321
0.018488
0.00417834
-0.0101446
-0.0244256
-0.0386285
-0.0527288
-0.066702
-0.0805196
-0.0941489
-0.107556
-0.120707
-0.133567
-0.146103
-0.15828
-0.170063
-0.181417
-0.192309
-0.202704
-0.212569
-0.221872
-0.230584
-0.238676
-0.246122
-0.2529
-0.25899
-0.264378
-0.269053
-0.27301
-0.276253
-0.278797
-0.28066
-0.281862
-0.282432
-0.282407
-0.281833
-0.280766
-0.279265
-0.277395
-0.275226
-0.272828
-0.27027
-0.267623
-0.264952
-0.262319
-0.259778
-0.257377
-0.255162
-0.253177
-0.25147
-0.250095
-0.249128
-0.24869
-0.248941
-0.250097
-0.252293
-0.255582
-0.259861
-0.264971
-0.270696
-0.27659
-0.281928
-0.285835
-0.287434
-0.286068
-0.281029
0.0597725
0.0445534
0.0293336
0.0141719
-0.00103063
-0.0162954
-0.03157
-0.0467967
-0.0619364
-0.0769614
-0.0918441
-0.106553
-0.121052
-0.135305
-0.149275
-0.162924
-0.176215
-0.189109
-0.201569
-0.213554
-0.225027
-0.23595
-0.246284
-0.255993
-0.265043
-0.2734
-0.281034
-0.287918
-0.294027
-0.299341
-0.303847
-0.307533
-0.310406
-0.31248
-0.313777
-0.314325
-0.31416
-0.313328
-0.311892
-0.309919
-0.307489
-0.304686
-0.301597
-0.298313
-0.294925
-0.29152
-0.288179
-0.284971
-0.281954
-0.279173
-0.276662
-0.274467
-0.272649
-0.271304
-0.270553
-0.270589
-0.271614
-0.273818
-0.277299
-0.282096
-0.28823
-0.295446
-0.303149
-0.310542
-0.317063
-0.322159
-0.325165
-0.325413
-0.321938
0.0420825
0.0257654
0.00947952
-0.00672796
-0.022967
-0.0392635
-0.0555648
-0.071811
-0.0879595
-0.103979
-0.11984
-0.135506
-0.150939
-0.166099
-0.180946
-0.195438
-0.209533
-0.223191
-0.236367
-0.249019
-0.261104
-0.272578
-0.283398
-0.293521
-0.302906
-0.311515
-0.319312
-0.326265
-0.332342
-0.337524
-0.341793
-0.345141
-0.347574
-0.349104
-0.349756
-0.34956
-0.348554
-0.346791
-0.344345
-0.341303
-0.337761
-0.333823
-0.3296
-0.325209
-0.320767
-0.316378
-0.312145
-0.308163
-0.30452
-0.301286
-0.298511
-0.296232
-0.294477
-0.293271
-0.292639
-0.292706
-0.29369
-0.295894
-0.299714
-0.30528
-0.312226
-0.319708
-0.327133
-0.334308
-0.340973
-0.346646
-0.350634
-0.35209
-0.350125
0.019174
0.00166278
-0.0158719
-0.0332966
-0.0507374
-0.0682361
-0.0857402
-0.103185
-0.120523
-0.137719
-0.154741
-0.171548
-0.188097
-0.204346
-0.22025
-0.235763
-0.250839
-0.265427
-0.279481
-0.292955
-0.305802
-0.317971
-0.329412
-0.340077
-0.349915
-0.358882
-0.366935
-0.374031
-0.380125
-0.385172
-0.389135
-0.391995
-0.393748
-0.394402
-0.393976
-0.392509
-0.390063
-0.386717
-0.382566
-0.377725
-0.372328
-0.366515
-0.360432
-0.354233
-0.348077
-0.342111
-0.336482
-0.331328
-0.326775
-0.322929
-0.319857
-0.317537
-0.315865
-0.314638
-0.31365
-0.313039
-0.313319
-0.31507
-0.318587
-0.323434
-0.328862
-0.3346
-0.340708
-0.347128
-0.35356
-0.359527
-0.364247
-0.366634
-0.365754
-0.000967447
-0.019813
-0.0385299
-0.0571473
-0.0757915
-0.0944882
-0.113182
-0.131806
-0.150308
-0.16865
-0.186791
-0.204686
-0.222298
-0.239581
-0.256483
-0.272958
-0.288952
-0.304408
-0.319276
-0.333509
-0.347043
-0.359821
-0.371784
-0.382879
-0.393051
-0.402254
-0.410441
-0.417573
-0.423619
-0.428544
-0.432312
-0.434889
-0.436254
-0.436382
-0.435259
-0.432911
-0.429396
-0.4248
-0.419234
-0.412834
-0.405767
-0.398224
-0.390406
-0.382518
-0.374765
-0.367321
-0.360314
-0.353815
-0.347866
-0.342547
-0.338006
-0.334465
-0.332076
-0.33067
-0.329836
-0.329445
-0.32968
-0.33059
-0.33214
-0.334352
-0.337237
-0.340954
-0.345723
-0.351564
-0.358085
-0.364461
-0.369583
-0.372176
-0.371415
-0.0364028
-0.0567655
-0.0773231
-0.0977106
-0.118077
-0.138509
-0.158956
-0.17934
-0.199598
-0.219683
-0.239551
-0.259165
-0.278475
-0.297426
-0.315965
-0.334037
-0.351584
-0.368545
-0.384858
-0.400453
-0.415264
-0.429228
-0.442279
-0.454352
-0.465378
-0.475277
-0.483951
-0.491281
-0.497164
-0.50155
-0.504424
-0.505784
-0.505614
-0.503899
-0.500636
-0.495855
-0.489627
-0.48206
-0.473303
-0.463539
-0.452986
-0.441899
-0.430541
-0.419189
-0.408107
-0.397507
-0.38756
-0.37838
-0.370016
-0.362504
-0.355967
-0.35077
-0.34742
-0.345938
-0.345508
-0.34501
-0.343926
-0.342374
-0.340916
-0.340127
-0.34049
-0.342626
-0.346952
-0.353134
-0.360158
-0.366709
-0.371394
-0.373028
-0.371198
-0.0473294
-0.0687863
-0.0899691
-0.111292
-0.132772
-0.154314
-0.175841
-0.197285
-0.218586
-0.239694
-0.260574
-0.281178
-0.301453
-0.321347
-0.340797
-0.359743
-0.378115
-0.395848
-0.412881
-0.429147
-0.444575
-0.459096
-0.472649
-0.48518
-0.496652
-0.507068
-0.516471
-0.524798
-0.531812
-0.537251
-0.540947
-0.54283
-0.542861
-0.541018
-0.537282
-0.53165
-0.524154
-0.514856
-0.503865
-0.491372
-0.477661
-0.463157
-0.448396
-0.434
-0.420621
-0.4089
-0.399382
-0.392228
-0.387083
-0.383152
-0.379515
-0.375518
-0.371285
-0.367321
-0.363657
-0.359776
-0.355314
-0.35057
-0.346399
-0.343788
-0.343529
-0.346002
-0.35096
-0.357544
-0.364368
-0.369783
-0.372328
-0.371189
-0.366389
-0.113272
-0.137555
-0.161988
-0.186205
-0.210408
-0.23477
-0.259228
-0.283628
-0.307858
-0.331864
-0.355616
-0.379072
-0.402177
-0.424865
-0.447062
-0.468694
-0.489684
-0.509956
-0.529432
-0.548027
-0.56565
-0.582202
-0.597572
-0.611632
-0.624232
-0.635188
-0.644288
-0.651452
-0.656766
-0.660298
-0.66197
-0.661582
-0.658947
-0.653932
-0.646473
-0.636556
-0.624204
-0.609491
-0.59257
-0.573695
-0.553269
-0.531813
-0.509991
-0.488572
-0.468373
-0.450136
-0.43434
-0.421165
-0.410536
-0.4021
-0.395311
-0.389572
-0.384428
-0.379532
-0.37463
-0.369526
-0.364051
-0.358439
-0.353482
-0.350266
-0.34979
-0.352431
-0.35761
-0.363932
-0.369603
-0.372951
-0.373017
-0.369926
-0.363826
-0.0372368
-0.032081
-0.0265706
-0.0207832
-0.0146325
-0.0080449
-0.000976939
0.00644622
0.0141618
0.0222884
0.0308874
0.0399078
0.049147
0.0591115
0.068835
0.0790213
0.0890587
0.099559
0.109917
0.12008
0.130768
0.140658
0.150276
0.159288
0.167835
0.175861
0.182909
0.189183
0.194895
0.199441
0.202844
0.205369
0.207149
0.208155
0.207949
0.206984
0.205412
0.202991
0.199939
0.196562
0.192514
0.188239
0.183953
0.179578
0.174651
0.169969
0.165061
0.160346
0.155589
0.150978
0.146557
0.142287
0.138298
0.134451
0.130835
0.127218
0.123907
0.120751
0.117837
-0.0404978
-0.0351284
-0.0293849
-0.0232787
-0.0167773
-0.00986871
-0.00252389
0.00523956
0.0134105
0.0219984
0.0309833
0.0403781
0.0501404
0.0602721
0.0706837
0.0812286
0.0920378
0.1029
0.113857
0.124575
0.135364
0.14587
0.155896
0.165378
0.174252
0.18254
0.19001
0.196505
0.202304
0.207037
0.210526
0.21316
0.214901
0.215708
0.215486
0.214383
0.212579
0.210053
0.206814
0.20307
0.198915
0.194458
0.189767
0.184782
0.179718
0.174616
0.16952
0.164511
0.159528
0.154667
0.149993
0.145498
0.14116
0.137062
0.133123
0.129427
0.125965
0.122699
0.119631
-0.0440962
-0.038458
-0.0324485
-0.0260351
-0.0192054
-0.011944
-0.00424911
0.00388195
0.0124587
0.0214815
0.0309257
0.0407681
0.0509985
0.061583
0.0724644
0.0836183
0.0949741
0.106422
0.11787
0.129187
0.140382
0.151331
0.161844
0.171789
0.18111
0.18973
0.1975
0.204324
0.210284
0.215132
0.218834
0.22154
0.223203
0.223873
0.223539
0.222305
0.220273
0.21754
0.214118
0.210171
0.205774
0.200971
0.195873
0.190561
0.185167
0.179748
0.174323
0.168959
0.163693
0.158567
0.153619
0.148849
0.144266
0.139886
0.135746
0.131843
0.128162
0.124696
0.121446
-0.0479502
-0.0420374
-0.035732
-0.0290064
-0.0218446
-0.014231
-0.00616019
0.00237174
0.0113693
0.0208316
0.0307451
0.0410879
0.0518395
0.0629548
0.0743758
0.0860764
0.0979648
0.109972
0.121973
0.133891
0.145639
0.157077
0.168078
0.178506
0.188283
0.197286
0.205386
0.21252
0.218684
0.223685
0.227552
0.230316
0.231952
0.232553
0.232105
0.23072
0.228478
0.225489
0.221806
0.217565
0.212834
0.207683
0.202244
0.19662
0.190868
0.185081
0.179297
0.173578
0.167979
0.162532
0.157267
0.152199
0.147349
0.142723
0.138335
0.134183
0.130264
0.126579
0.123135
-0.05216
-0.0459526
-0.0393306
-0.0322679
-0.0247488
-0.0167578
-0.00828499
0.000675207
0.0101243
0.0200586
0.030467
0.0413308
0.0526226
0.0642972
0.0762997
0.0885745
0.101046
0.113637
0.126236
0.138755
0.151082
0.163067
0.174588
0.185518
0.195753
0.205164
0.213625
0.221063
0.227453
0.232632
0.236629
0.239449
0.241085
0.241626
0.241066
0.239515
0.237056
0.233793
0.229807
0.225219
0.220122
0.214616
0.208817
0.202817
0.196685
0.190509
0.184352
0.178271
0.172316
0.166522
0.160921
0.155535
0.150383
0.145474
0.140815
0.136408
0.132256
0.128353
0.124705
-0.0568191
-0.0502982
-0.0433395
-0.0359162
-0.0280127
-0.0196134
-0.0107077
-0.00128924
0.00864366
0.0190866
0.0300266
0.0414433
0.0533068
0.0655747
0.0781923
0.0910937
0.104201
0.117426
0.130662
0.143805
0.156735
0.169306
0.181387
0.192845
0.203558
0.213396
0.222238
0.229995
0.236625
0.241994
0.24612
0.248994
0.250623
0.251091
0.250406
0.248673
0.245978
0.242429
0.238122
0.233177
0.227704
0.221813
0.215613
0.209202
0.202664
0.196083
0.18953
0.183063
0.176729
0.170569
0.164616
0.158895
0.153423
0.148213
0.143271
0.1386
0.134199
0.130062
0.126193
-0.0619713
-0.0551175
-0.0478017
-0.0399964
-0.0316852
-0.0228522
-0.0134855
-0.00357796
0.00687163
0.017858
0.029368
0.0413789
0.0538583
0.0667618
0.0800332
0.0936038
0.107391
0.121297
0.135215
0.149026
0.162601
0.175798
0.188476
0.200493
0.211717
0.222014
0.231258
0.239353
0.246242
0.251812
0.256071
0.258998
0.260611
0.260995
0.260168
0.258235
0.255286
0.251434
0.246787
0.24147
0.235601
0.229296
0.222668
0.215821
0.208849
0.201837
0.194858
0.187973
0.181234
0.174683
0.168356
0.162278
0.156467
0.150935
0.14569
0.140732
0.136061
0.13167
0.127565
-0.0676669
-0.0604576
-0.0527613
-0.0445497
-0.0358047
-0.0265098
-0.0166523
-0.00622446
0.00477487
0.0163403
0.0284579
0.0411031
0.0542407
0.0678235
0.0817929
0.0960759
0.110586
0.125221
0.139865
0.154391
0.168661
0.182528
0.195844
0.208459
0.220232
0.23102
0.240695
0.249151
0.256321
0.262106
0.266502
0.269482
0.271077
0.271368
0.270386
0.268234
0.265012
0.260835
0.255825
0.25011
0.243817
0.237069
0.229984
0.222673
0.215235
0.207758
0.200319
0.192985
0.185811
0.178842
0.172112
0.165649
0.159473
0.153594
0.148021
0.142753
0.137792
0.13313
0.128772
-0.073979
-0.0663891
-0.0582853
-0.0496385
-0.0404294
-0.03064
-0.0202573
-0.00927361
0.00231222
0.0144945
0.0272584
0.0405781
0.0544164
0.0687244
0.0834395
0.0984842
0.113767
0.129179
0.144597
0.159886
0.1749
0.189486
0.203485
0.216741
0.229101
0.240416
0.250551
0.259394
0.266867
0.27288
0.277419
0.280457
0.282033
0.282226
0.281075
0.278688
0.275171
0.270647
0.265245
0.259102
0.252353
0.245127
0.237551
0.22974
0.221799
0.213822
0.205891
0.198076
0.190435
0.183015
0.175854
0.168979
0.162411
0.156161
0.150236
0.144639
0.139368
0.134416
0.129788
-0.0809857
-0.0729899
-0.0644512
-0.0553395
-0.0456342
-0.0353166
-0.0243733
-0.0127968
-0.00058562
0.0122545
0.0257083
0.0397488
0.0543377
0.0694231
0.084938
0.1008
0.116909
0.133151
0.149395
0.165499
0.181311
0.196666
0.211397
0.225337
0.238325
0.250204
0.260831
0.270087
0.277886
0.284143
0.288835
0.291935
0.29349
0.293576
0.292244
0.289604
0.28577
0.280872
0.275049
0.268446
0.261205
0.253465
0.245359
0.237009
0.228527
0.220013
0.211554
0.203222
0.19508
0.187178
0.179554
0.172238
0.16525
0.158604
0.152307
0.146358
0.140758
0.135498
0.130582
-0.0887979
-0.0803695
-0.0713676
-0.061761
-0.0515275
-0.0406469
-0.0291051
-0.0168935
-0.00401051
0.0095376
0.0237349
0.0385527
0.0539505
0.0698717
0.0862442
0.102979
0.119972
0.137101
0.154231
0.171211
0.187878
0.204057
0.219571
0.234244
0.247904
0.260386
0.271538
0.281236
0.289385
0.295904
0.300758
0.303925
0.305456
0.305427
0.3039
0.300986
0.296811
0.291512
0.285236
0.278137
0.270367
0.262074
0.253398
0.244469
0.235406
0.226315
0.217287
0.208401
0.19972
0.191299
0.183177
0.175387
0.167948
0.160875
0.154176
0.147849
0.141895
0.136303
0.131079
-0.0975494
-0.0886576
-0.079158
-0.0690184
-0.0582157
-0.0467284
-0.034541
-0.021644
-0.00803558
0.00627624
0.0212741
0.0369273
0.0531909
0.0700052
0.0872934
0.104963
0.122903
0.140987
0.159071
0.176993
0.194575
0.211636
0.22799
0.24345
0.25783
0.270958
0.282674
0.292845
0.301371
0.308169
0.313196
0.316434
0.317938
0.317785
0.316046
0.312839
0.308297
0.302566
0.295803
0.28817
0.279831
0.270943
0.261654
0.252103
0.242417
0.232706
0.223068
0.213585
0.204327
0.195347
0.186691
0.17839
0.170466
0.162933
0.155799
0.149065
0.142727
0.136778
0.131221
-0.107352
-0.0979601
-0.0879234
-0.0772084
-0.065791
-0.0536487
-0.0407653
-0.0271313
-0.0127457
0.00238295
0.0182352
0.0347793
0.0519684
0.0697396
0.0880121
0.106687
0.12565
0.144763
0.163871
0.182798
0.201362
0.219371
0.236628
0.252932
0.268087
0.281909
0.29423
0.304909
0.313839
0.320936
0.326149
0.329463
0.330937
0.33065
0.328683
0.32516
0.320223
0.314027
0.30674
0.298535
0.289585
0.280056
0.270109
0.259889
0.249532
0.239154
0.22886
0.218737
0.208858
0.19928
0.190051
0.181202
0.172758
0.164733
0.157134
0.149962
0.143214
0.136881
0.130965
-0.118344
-0.108411
-0.0977959
-0.0864627
-0.0743851
-0.0615405
-0.0479122
-0.0334903
-0.0182735
-0.0022703
0.0144988
0.0320009
0.0501878
0.0689927
0.0883278
0.108088
0.128147
0.14836
0.168561
0.188568
0.208191
0.227223
0.245451
0.262663
0.278651
0.293219
0.30619
0.317415
0.326781
0.334199
0.339613
0.343009
0.344449
0.344019
0.341806
0.337944
0.332581
0.325885
0.318034
0.309213
0.299605
0.289388
0.278731
0.267792
0.256712
0.245617
0.234617
0.223804
0.213256
0.203035
0.193188
0.183752
0.174749
0.166196
0.1581
0.15046
0.143273
0.136528
0.130228
-0.130721
-0.120205
-0.108968
-0.09697
-0.0841832
-0.0705834
-0.0561533
-0.0408826
-0.0247688
-0.00782039
0.00994025
0.0284781
0.0477407
0.0676568
0.0881322
0.109053
0.130286
0.151681
0.173062
0.194239
0.215004
0.235135
0.254408
0.272598
0.289483
0.304855
0.318527
0.330341
0.340177
0.347941
0.353572
0.357056
0.358461
0.357876
0.355399
0.35117
0.34535
0.338116
0.329659
0.320175
0.309858
0.298899
0.287479
0.275764
0.263905
0.252037
0.240276
0.22872
0.217452
0.206536
0.196024
0.185954
0.176349
0.167227
0.158594
0.15045
0.142791
0.135604
0.128893
-0.144687
-0.133546
-0.121639
-0.108926
-0.0953744
-0.0809609
-0.0656656
-0.0494779
-0.0323951
-0.0144265
0.00440351
0.0240554
0.0444726
0.0655795
0.0872791
0.10945
0.131953
0.154628
0.177286
0.199726
0.221719
0.243035
0.263437
0.282682
0.300535
0.316775
0.331202
0.343652
0.353994
0.362133
0.367999
0.37158
0.372946
0.372195
0.369435
0.364812
0.3585
0.350686
0.341576
0.331377
0.320297
0.308539
0.296295