/*--------------------------------*- C++ -*----------------------------------*\
| =========                 |                                                 |
| \\      /  F ield         | OpenFOAM: The Open Source CFD Toolbox           |
|  \\    /   O peration     | Version:  2312                                  |
|   \\  /    A nd           | Website:  www.openfoam.com                      |
|    \\/     M anipulation  |                                                 |
\*---------------------------------------------------------------------------*/
FoamFile
{
    version     2.0;
    format      ascii;
    arch        "LSB;label=32;scalar=64";
    class       surfaceScalarField;
    location    "1700";
    object      phi;
}
// * * * * * * * * * * * * * * * * * * * * * * * * * * * * * * * * * * * * * //

dimensions      [0 3 -1 0 0 0 0];

oriented        oriented;

internalField   nonuniform List<scalar> 
116611
(
0.0263972
0.0111302
-0.0259944
-0.011533
0.0267973
0.01103
-0.0114302
0.0271934
0.0109216
-0.0113177
0.0275853
0.0108043
-0.0111962
0.0279713
0.0106781
-0.0110641
0.028356
0.010541
-0.0109258
0.0287307
0.0103949
-0.0107695
0.0291039
0.0102387
-0.010612
0.0294679
0.0100709
-0.0104349
0.0298267
0.00989281
-0.0102516
0.0301775
0.00970248
-0.0100533
0.0305224
0.00950081
-0.00984571
0.0308593
0.0092871
-0.00962396
0.0311894
0.00906083
-0.00939096
0.0315112
0.00882206
-0.00914389
0.0318232
0.00857159
-0.00888352
0.0321286
0.00830549
-0.00861093
0.0324238
0.00802833
-0.00832354
0.0327082
0.00773368
-0.00801803
0.0329823
0.00742797
-0.00770209
0.0332483
0.00710379
-0.00736977
0.0335004
0.00676577
-0.0070179
0.0337409
0.00641183
-0.0066523
0.0339705
0.00604306
-0.00627272
0.0341859
0.00565751
-0.00587292
0.0343905
0.00525538
-0.00545998
0.0345798
0.00483398
-0.00502328
0.0347513
0.00439742
-0.00456884
0.0349141
0.00394225
-0.00410512
0.035057
0.00346775
-0.0036106
0.0351807
0.00297624
-0.00309995
0.0352874
0.00246261
-0.00256932
0.0353738
0.00192969
-0.00201613
0.0354445
0.00138138
-0.00145208
0.0354948
0.000809843
-0.000860166
0.0355243
0.000221212
-0.000250639
0.0355379
-0.000392287
0.000378648
0.0355207
-0.00102893
0.0010461
0.0354842
-0.0016834
0.00171997
0.0354227
-0.00236137
0.00242282
0.0353386
-0.00305878
0.0031429
0.035231
-0.00378088
0.0038885
0.035087
-0.004527
0.00467102
0.0349228
-0.00528943
0.00545363
0.0347296
-0.0060761
0.00626933
0.0345098
-0.006884
0.00710379
0.0342532
-0.00771775
0.00797429
0.0339697
-0.00856887
0.00885239
0.0336579
-0.00944128
0.00975308
0.033314
-0.0103365
0.0106804
0.0329368
-0.0112547
0.011632
0.0325228
-0.0121951
0.0126091
0.0320696
-0.0131562
0.0136093
0.0315781
-0.0141359
0.0146274
0.0310468
-0.0151337
0.015665
0.0304774
-0.0161483
0.0167178
0.0298596
-0.0171832
0.0178009
0.0291974
-0.0182329
0.0188951
0.0284832
-0.019301
0.0200152
0.027707
-0.0203885
0.0211647
0.0268731
-0.0214878
0.0223218
0.0259707
-0.0225964
0.0234988
0.0250131
-0.0237109
0.0246684
0.0239835
-0.0248425
0.0258721
0.0228898
-0.0259971
0.0270908
0.0217492
-0.0271883
0.0283289
0.0205029
-0.0284557
0.029702
0.019139
-0.0297838
0.0311477
-0.0310619
0.0177576
0.0324433
0.0259955
0.010728
-0.0255933
0.0263937
0.0106318
0.0267882
0.0105271
0.0271784
0.010414
0.0275651
0.0102915
0.0279461
0.01016
0.0283219
0.0100191
0.0286926
0.00986804
0.0290567
0.0097068
0.0294148
0.00953469
0.0297657
0.00935161
0.0301093
0.00915725
0.0304453
0.00895105
0.0307734
0.00873272
0.0310928
0.00850263
0.0314049
0.00825953
0.0317067
0.0080037
0.0320006
0.00773441
0.0322827
0.00745156
0.0325565
0.0071542
0.0328181
0.00684223
0.0330682
0.00651565
0.0333061
0.00617394
0.0335322
0.00581692
0.0337457
0.00544403
0.0339466
0.00505443
0.0341322
0.00464843
0.0343039
0.00422572
0.0344608
0.00378534
0.0346008
0.00332776
0.0347253
0.00285171
0.0348313
0.00235659
0.0349179
0.00184315
0.0349879
0.0013114
0.0350375
0.000760255
0.0350687
0.000190014
0.0350783
-0.000401957
0.0350643
-0.00101492
0.0350291
-0.00164819
0.0349701
-0.00230233
0.0348886
-0.0029773
0.0347815
-0.00367377
0.0346463
-0.00439182
0.0344869
-0.00513007
0.0343003
-0.00588951
0.0340864
-0.00667011
0.0338412
-0.00747255
0.0335674
-0.00829502
0.0332638
-0.00913769
0.0329284
-0.0100011
0.0325591
-0.0108854
0.0321537
-0.0117898
0.0317107
-0.0127132
0.031229
-0.0136542
0.030707
-0.0146118
0.0301438
-0.0155851
0.029535
-0.0165743
0.0288798
-0.0175778
0.0281739
-0.0185951
0.0274113
-0.0196258
0.0265893
-0.0206659
0.0257058
-0.0217129
0.0247625
-0.0227676
0.0237563
-0.0238362
0.0226889
-0.0249297
0.0215655
-0.026065
0.0203638
-0.027254
0.0190695
-0.0284894
-0.0297014
0.0177091
0.0256043
0.0103269
-0.0252031
0.0260015
0.0102346
0.0263947
0.0101339
0.0267839
0.0100248
0.0271684
0.00990694
0.0275483
0.00978018
0.0279232
0.0096442
0.0282926
0.00949864
0.0286562
0.00934324
0.0290133
0.00917757
0.0293635
0.00900135
0.0297066
0.00881419
0.0300419
0.00861572
0.0303691
0.00840558
0.0306881
0.0081836
0.0309983
0.00794931
0.0312996
0.00770248
0.0315913
0.00744267
0.0318732
0.00716964
0.0321445
0.00688285
0.0324047
0.00658212
0.0326533
0.00626703
0.03289
0.00593725
0.0331144
0.00559248
0.0333261
0.00523235
0.0335241
0.00485643
0.0337081
0.00446446
0.0338777
0.00405603
0.0340322
0.00363085
0.0341714
0.0031886
0.0342943
0.00272885
0.0343995
0.0022513
0.034487
0.00175571
0.0345564
0.00124195
0.0346068
0.000709836
0.0346376
0.00015928
0.0346476
-0.000411959
0.0346361
-0.00100342
0.0346028
-0.00161487
0.0345467
-0.00224631
0.0344674
-0.00289799
0.0343637
-0.00357001
0.0342345
-0.0042626
0.0340798
-0.00497537
0.0338985
-0.00570825
0.0336898
-0.00646137
0.033452
-0.00723476
0.0331848
-0.00802789
0.0328875
-0.00884032
0.0325584
-0.00967204
0.0321958
-0.0105228
0.0317979
-0.0113919
0.031363
-0.0122783
0.0308898
-0.0131809
0.0303766
-0.0140985
0.0298216
-0.0150301
0.0292222
-0.0159749
0.028576
-0.0169316
0.0278799
-0.017899
0.0271296
-0.0188756
0.0263226
-0.0198589
0.0254574
-0.0208478
0.0245348
-0.0218449
0.0235552
-0.0228566
0.0225202
-0.0238947
0.0214257
-0.0249704
0.0202535
-0.0260818
0.0189855
-0.0272214
-0.0283264
0.0176105
0.0252255
0.00992618
-0.0248248
0.0256224
0.00983781
0.026015
0.00974132
0.0264032
0.0096366
0.0267867
0.00952342
0.0271654
0.00940152
0.0275389
0.00927065
0.027907
0.00913057
0.0282692
0.00898098
0.0286253
0.00882156
0.0289746
0.00865197
0.0293169
0.00847187
0.0296517
0.00828094
0.0299785
0.00807883
0.0302969
0.00786518
0.0306065
0.00763971
0.0309069
0.00740205
0.0311977
0.00715189
0.0314785
0.00688887
0.0317487
0.00661267
0.0320079
0.00632292
0.0322556
0.00601928
0.0324914
0.00570143
0.0327148
0.00536907
0.0329254
0.00502183
0.0331224
0.00465935
0.0333056
0.00428128
0.0334743
0.00388732
0.033628
0.00347717
0.0337661
0.00305049
0.033888
0.00260699
0.033993
0.00214634
0.0340804
0.00166826
0.0341498
0.0011726
0.0342004
0.000659232
0.0342316
0.000128056
0.0342428
-0.000423146
0.0342331
-0.000993721
0.0342018
-0.00158357
0.0341482
-0.00219276
0.0340717
-0.00282144
0.0339713
-0.00346969
0.0338463
-0.00413757
0.0336959
-0.00482493
0.0335193
-0.00553164
0.0333155
-0.00625766
0.0330836
-0.00700282
0.0328225
-0.00776677
0.0325312
-0.00854904
0.0322084
-0.00934929
0.0318527
-0.010167
0.0314622
-0.0110015
0.0310356
-0.0118516
0.030571
-0.0127164
0.0300671
-0.0135946
0.0295219
-0.0144849
0.0289333
-0.0153862
0.0282987
-0.016297
0.0276154
-0.0172157
0.0268805
-0.0181406
0.0260919
-0.0190703
0.0252496
-0.0200054
0.0243544
-0.0209497
0.023407
-0.0219092
0.022406
-0.0228937
0.0213414
-0.0239059
0.0201941
-0.0249346
0.0189453
-0.0259726
-0.0269597
0.0175785
0.0248605
0.00952654
-0.0244609
0.0252566
0.00944173
0.0256486
0.00934926
0.0260363
0.00924895
0.0264192
0.0091405
0.0267971
0.00902364
0.0271696
0.00889812
0.0275365
0.00876365
0.0278976
0.00861993
0.0282524
0.00846671
0.0286007
0.00830371
0.028942
0.00813059
0.0292759
0.00794707
0.0296019
0.00775282
0.0299196
0.00754748
0.0302285
0.00733074
0.0305283
0.00710225
0.0308185
0.00686171
0.0310986
0.00660878
0.0313681
0.00634313
0.0316267
0.00606435
0.0318738
0.00577214
0.0321091
0.00546622
0.0323319
0.00514624
0.0325419
0.00481185
0.0327385
0.00446274
0.0329212
0.00409858
0.0330894
0.00371906
0.0332427
0.00332389
0.0333804
0.00291275
0.0335021
0.00248535
0.033607
0.00204141
0.0336946
0.00158068
0.0337643
0.00110293
0.0338154
0.000608064
0.0338476
9.59256e-05
0.0338599
-0.000435511
0.0338518
-0.000985558
0.0338224
-0.00155419
0.0337711
-0.00214149
0.0336972
-0.00274755
0.0336
-0.00337241
0.0334785
-0.00401608
0.033332
-0.00467844
0.0331597
-0.00535936
0.0329607
-0.00605866
0.032734
-0.00677609
0.0324785
-0.00751127
0.0321932
-0.00826373
0.0318768
-0.00903292
0.031528
-0.0098182
0.0311453
-0.0106187
0.0307272
-0.0114335
0.0302722
-0.0122614
0.0297787
-0.0131011
0.0292449
-0.0139511
0.0286688
-0.0148101
0.0280482
-0.0156764
0.0273809
-0.0165484
0.0266649
-0.0174246
0.0258995
-0.0183049
0.0250852
-0.0191911
0.0242226
-0.0200872
0.0233107
-0.0209973
0.0223439
-0.0219269
0.0213071
-0.0228691
0.0201808
-0.0238083
0.0189464
-0.0247382
-0.0255955
0.0175822
0.0245115
0.00912884
-0.0241138
0.024906
0.00904723
0.0252968
0.00895842
0.0256836
0.00886222
0.0260658
0.00875831
0.026443
0.00864641
0.0268149
0.00852622
0.0271811
0.00839743
0.0275413
0.00825972
0.0278952
0.00811282
0.0282424
0.00795646
0.0285827
0.00779038
0.0289155
0.00761425
0.0292405
0.00742779
0.0295573
0.00723069
0.0298654
0.00702262
0.0301645
0.00680322
0.030454
0.00657221
0.0307335
0.00632926
0.0310026
0.00607405
0.0312607
0.00580622
0.0315074
0.00552543
0.0317422
0.00523139
0.0319647
0.00492377
0.0321743
0.00460224
0.0323706
0.00426649
0.0325529
0.0039162
0.0327209
0.00355108
0.032874
0.00317081
0.0330116
0.00277511
0.0331333
0.0023637
0.0332384
0.00193633
0.0333263
0.00149275
0.0333965
0.0010327
0.0334484
0.000556145
0.0334816
6.2813e-05
0.0334951
-0.000449091
0.0334885
-0.00097892
0.033461
-0.00152666
0.0334119
-0.0020924
0.0333405
-0.00267619
0.0332462
-0.00327805
0.033128
-0.00389794
0.0329853
-0.00453574
0.0328172
-0.00519127
0.0326229
-0.0058643
0.0324013
-0.0065545
0.0321515
-0.00726145
0.0318724
-0.00798463
0.0315628
-0.0087234
0.0312217
-0.00947702
0.0308475
-0.0102446
0.030439
-0.011025
0.0299947
-0.0118171
0.0295131
-0.0126195
0.0289926
-0.0134306
0.0284313
-0.0142489
0.0278276
-0.0150727
0.02718
-0.0159007
0.0264876
-0.0167322
0.0257505
-0.0175679
0.0249693
-0.0184099
0.024143
-0.0192609
0.0232676
-0.0201219
0.0223328
-0.0209921
0.0213212
-0.0218575
0.0202146
-0.0227017
0.0189973
-0.0235209
-0.0242488
0.0176507
0.0241809
0.00873324
-0.0237853
0.0245733
0.00865482
0.0249622
0.00856951
0.0253473
0.00847715
0.0257281
0.00837752
0.0261042
0.0082703
0.0264752
0.00815522
0.0268406
0.00803197
0.0272001
0.00790022
0.0275533
0.00775964
0.0278998
0.00760998
0.0282392
0.00745095
0.0285712
0.00728228
0.0288953
0.00710365
0.0292113
0.00691476
0.0295186
0.00671531
0.0298168
0.00650499
0.0301055
0.00628345
0.0303844
0.00605042
0.0306528
0.0058056
0.0309104
0.00554865
0.0311566
0.00527923
0.031391
0.00499703
0.031613
0.00470173
0.0318222
0.00439302
0.0320181
0.00407058
0.0322002
0.0037341
0.032368
0.00338328
0.032521
0.00301783
0.0326586
0.00263748
0.0327804
0.00224195
0.0328857
0.001831
0.0329741
0.0014044
0.0330449
0.000961886
0.0330976
0.000503455
0.0331317
2.87044e-05
0.0331465
-0.000463926
0.0331414
-0.000973829
0.0331158
-0.001501
0.0330689
-0.00204551
0.0330001
-0.00260739
0.0329086
-0.00318663
0.0327939
-0.00378316
0.032655
-0.00439683
0.0324911
-0.00502745
0.0323015
-0.00567472
0.0320853
-0.00633828
0.0318415
-0.00701766
0.0315692
-0.00771228
0.0312672
-0.00842146
0.0309346
-0.00914436
0.03057
-0.00988004
0.0301724
-0.0106274
0.0297403
-0.011385
0.0292724
-0.0121516
0.0287674
-0.0129256
0.0282237
-0.0137053
0.0276405
-0.0144894
0.027017
-0.0152772
0.0263532
-0.0160685
0.0256494
-0.0168641
0.0249049
-0.0176654
0.024116
-0.018472
0.0232753
-0.0192812
0.0223696
-0.0200864
0.0213812
-0.0208691
0.0202949
-0.0216154
0.0190982
-0.0223241
-0.0229323
0.0177816
0.0238693
0.0083392
-0.0234753
0.0242599
0.00826417
0.024647
0.00818249
0.0250301
0.00809403
0.025409
0.00799857
0.0257835
0.00789588
0.026153
0.00778569
0.0265172
0.00766775
0.0268757
0.00754175
0.0272279
0.00740738
0.0275736
0.00726432
0.0279122
0.0071123
0.0282435
0.00695104
0.0285669
0.00678024
0.0288821
0.00659959
0.0291886
0.00640878
0.0294861
0.00620753
0.029774
0.0059955
0.030052
0.00577241
0.0303197
0.00553795
0.0305765
0.00529183
0.030822
0.00503371
0.0310558
0.00476328
0.0312773
0.00448023
0.031486
0.00418425
0.0316816
0.00387503
0.0318634
0.00355227
0.032031
0.00321567
0.0321839
0.00286494
0.0323216
0.00249983
0.0324434
0.00212007
0.032549
0.0017254
0.0326378
0.00131562
0.0327093
0.000890459
0.0327627
0.000449962
0.0327979
-6.43695e-06
0.032814
-0.000480042
0.0328105
-0.000970298
0.0327867
-0.0014772
0.032742
-0.00200081
0.0326757
-0.00254114
0.0325873
-0.00309817
0.0324759
-0.00367179
0.0323409
-0.00426185
0.0321816
-0.00486811
0.0319971
-0.00549025
0.0317867
-0.00612788
0.0315495
-0.00678048
0.0312847
-0.00744744
0.0309913
-0.00812803
0.0306683
-0.00882136
0.0303146
-0.00952642
0.0299293
-0.010242
0.0295112
-0.0109669
0.0290592
-0.0116996
0.0285722
-0.0124386
0.0280497
-0.0131827
0.0274911
-0.0139309
0.0268965
-0.0146826
0.026266
-0.0154379
0.0255988
-0.0161969
0.0248919
-0.0169585
0.024139
-0.0177191
0.0233301
-0.0184723
0.0224507
-0.019207
0.0214855
-0.019904
0.0204237
-0.0205535
0.0192565
-0.0211569
-0.0216487
0.0179729
0.0235762
0.00794604
-0.023183
0.0239658
0.0078746
0.0243515
0.00779674
0.0247332
0.00771237
0.0251105
0.00762127
0.0254832
0.0075232
0.0258509
0.00741792
0.0262134
0.00730524
0.0265703
0.00718486
0.0269212
0.00705652
0.0272656
0.00691993
0.0276031
0.0067748
0.0279333
0.00662085
0.0282557
0.00645778
0.02857
0.00628531
0.0288757
0.00610311
0.0291723
0.00591089
0.0294595
0.00570835
0.0297367
0.00549518
0.0300036
0.00527108
0.0302597
0.00503575
0.0305045
0.00478888
0.0307376
0.00453017
0.0309585
0.00425931
0.0311668
0.00397599
0.0313619
0.00367991
0.0315434
0.00337078
0.0317108
0.00304831
0.0318635
0.00271221
0.0320011
0.00236223
0.0321231
0.00199809
0.0322289
0.00161957
0.0323181
0.00122645
0.0323901
0.000818461
0.0324443
0.000395696
0.0324805
-4.25821e-05
0.0324979
-0.00049742
0.0324959
-0.000968315
0.0324739
-0.00145527
0.0324315
-0.00195835
0.0323679
-0.00247755
0.0322825
-0.00301282
0.0321748
-0.00356406
0.0320441
-0.00413109
0.0318896
-0.00471365
0.0317108
-0.00531141
0.0315068
-0.00592393
0.031277
-0.00655068
0.0310206
-0.00719102
0.0307367
-0.00784417
0.0304246
-0.00850923
0.0300833
-0.00918515
0.029712
-0.00987077
0.02931
-0.0105648
0.0288764
-0.011266
0.0284109
-0.0119732
0.0279134
-0.0126852
0.0273839
-0.0134014
0.0268224
-0.0141211
0.0262279
-0.0148435
0.0255979
-0.0155669
0.0249271
-0.0162877
0.0242071
-0.0169991
0.0234267
-0.0176919
0.0225723
-0.0183526
0.0216323
-0.018964
0.0206016
-0.0195229
0.0194779
-0.0200332
-0.0204447
0.0182739
0.0233009
0.00755338
-0.0229082
0.0236898
0.00748562
0.0240748
0.00741173
0.0244556
0.00733158
0.0248319
0.007245
0.0252034
0.00715173
0.0255698
0.00705153
0.0259308
0.00694422
0.0262861
0.00682955
0.0266354
0.00670727
0.0269782
0.00657712
0.0273142
0.00643881
0.0276429
0.00629208
0.0279641
0.00613665
0.0282771
0.00597224
0.0285817
0.00579855
0.0288773
0.00561528
0.0291635
0.00542213
0.0294399
0.00521881
0.0297059
0.00500502
0.0299613
0.00478044
0.0302054
0.00454478
0.0304378
0.00429774
0.0306581
0.00403901
0.0308658
0.00376829
0.0310604
0.0034853
0.0312414
0.00318972
0.0314085
0.00288129
0.031561
0.00255972
0.0316984
0.00222475
0.0318204
0.00187612
0.0319264
0.00151359
0.0320159
0.00113695
0.0320884
0.000745955
0.0321434
0.000340702
0.0321805
-7.97156e-05
0.0321992
-0.000516068
0.0321988
-0.000967922
0.0321788
-0.0014353
0.0321387
-0.00191826
0.032078
-0.00241679
0.031996
-0.00293084
0.0318922
-0.0034603
0.0317661
-0.00400497
0.031617
-0.00456457
0.0314444
-0.00513878
0.0312476
-0.00572713
0.031026
-0.00632907
0.0307789
-0.00694395
0.0305057
-0.00757099
0.0302058
-0.00820929
0.0298785
-0.00885785
0.0295233
-0.00951559
0.0291399
-0.0101814
0.028728
-0.0108542
0.0282877
-0.0115329
0.0278191
-0.0122166
0.027322
-0.0129042
0.0267954
-0.0135945
0.0262371
-0.0142851
0.0256424
-0.0149723
0.0250045
-0.0156498
0.024314
-0.0163086
0.0235599
-0.0169378
0.0227312
-0.0175239
0.0218208
-0.0180535
0.0208282
-0.0185303
0.0197546
-0.0189596
-0.019298
0.018608
0.0230438
0.00716103
-0.0226515
0.0234325
0.00709695
0.0238172
0.00702705
0.0241975
0.0069512
0.0245733
0.00686922
0.0249442
0.00678088
0.0253098
0.00668594
0.0256698
0.00658417
0.026024
0.00647536
0.026372
0.00635925
0.0267135
0.00623561
0.0270481
0.00610419
0.0273755
0.00596472
0.0276952
0.00581693
0.0280069
0.00566055
0.0283101
0.00549532
0.0286045
0.00532094
0.0288895
0.00513712
0.0291647
0.00494358
0.0294297
0.00474001
0.0296841
0.00452611
0.0299273
0.0043016
0.0301588
0.00406616
0.0303783
0.00381949
0.0305853
0.00356131
0.0307793
0.00329132
0.0309598
0.00300922
0.0311264
0.00271473
0.0312785
0.00240758
0.0314158
0.0020875
0.0315376
0.00175423
0.0316437
0.00140754
0.0317334
0.0010472
0.0318064
0.000672988
0.0318621
0.000285002
0.0319002
-0.000117841
0.0319202
-0.00053602
0.0319215
-0.000969186
0.0319035
-0.00141739
0.031866
-0.00188068
0.0318083
-0.00235907
0.0317299
-0.00285249
0.0316304
-0.00336081
0.0315093
-0.00388385
0.031366
-0.00442133
0.0312002
-0.00497291
0.0310112
-0.00553813
0.0307986
-0.00611646
0.0305619
-0.00670725
0.0303006
-0.00730977
0.0300145
-0.00792318
0.0297033
-0.00854659
0.0293667
-0.00917905
0.0290049
-0.00981958
0.028618
-0.0104672
0.0282059
-0.0111208
0.0277685
-0.0117792
0.0273048
-0.0124405
0.0268125
-0.0131022
0.0262878
-0.0137604
0.0257249
-0.0144094
0.0251162
-0.015041
0.0244527
-0.015645
0.023725
-0.0162102
0.022926
-0.0167248
0.0220534
-0.017181
0.0211108
-0.0175876
0.0201022
-0.0179511
-0.0182315
0.0190356
0.022806
0.00676907
-0.022414
0.0231943
0.00670863
0.0235786
0.0066427
0.0239587
0.00657114
0.0243341
0.00649377
0.0247047
0.00641037
0.0250699
0.0063207
0.0254295
0.00622454
0.0257832
0.00612168
0.0261306
0.00601186
0.0264714
0.00589485
0.0268051
0.00577042
0.0271315
0.0056383
0.0274502
0.00549824
0.0277608
0.00534998
0.0280629
0.00519325
0.028356
0.00502778
0.0286399
0.0048533
0.0289139
0.00466951
0.0291778
0.00447614
0.029431
0.00427289
0.0296731
0.00405946
0.0299037
0.00383557
0.0301223
0.00360091
0.0303284
0.00335519
0.0305216
0.00309812
0.0307014
0.00282941
0.0308674
0.00254877
0.0310191
0.00225592
0.031156
0.0019506
0.0312776
0.00163255
0.0313837
0.00130152
0.0314736
0.000957285
0.0315469
0.000599635
0.0316033
0.000228644
0.0316424
-0.000156926
0.0316636
-0.000557258
0.0316665
-0.000972118
0.0316507
-0.00140158
0.0316158
-0.00184571
0.0315612
-0.00230451
0.0314866
-0.00277792
0.0313916
-0.00326583
0.0312758
-0.00376805
0.0311389
-0.00428434
0.0309803
-0.00481436
0.0307999
-0.00535768
0.0305972
-0.00591382
0.0303722
-0.00648219
0.0301245
-0.00706213
0.0298542
-0.0076529
0.0295614
-0.00825373
0.029246
-0.00886373
0.0289084
-0.00948194
0.0285484
-0.0101072
0.0281658
-0.0107381
0.0277593
-0.0113727
0.0273272
-0.0120083
0.026866
-0.012641
0.0263711
-0.0132655
0.0258361
-0.0138745
0.0252538
-0.0144587
0.0246165
-0.0150078
0.0239182
-0.0155119
0.0231566
-0.0159632
0.0223357
-0.0163602
0.0214632
-0.0167151
0.020543
-0.0170308
-0.0172264
0.0195379
0.0225884
0.00637746
-0.0221968
0.0229764
0.00632067
0.0233604
0.00625869
0.0237401
0.0061914
0.0241153
0.00611862
0.0244855
0.00604013
0.0248505
0.00595572
0.0252099
0.00586517
0.0255633
0.00576826
0.0259104
0.00566475
0.0262508
0.00555443
0.0265842
0.00543704
0.0269101
0.00531235
0.0272283
0.00518009
0.0275383
0.00504002
0.0278396
0.00489188
0.028132
0.00473539
0.028415
0.0045703
0.0286882
0.00439632
0.0289512
0.00421318
0.0292035
0.00402059
0.0294447
0.00381826
0.0296743
0.00360591
0.029892
0.00338323
0.0300973
0.00314994
0.0302896
0.00290574
0.0304687
0.00265034
0.030634
0.00238347
0.0307851
0.00210483
0.0309216
0.00181415
0.0310429
0.00151117
0.0311488
0.00119564
0.0312388
0.000867313
0.0313124
0.000526007
0.0313693
0.000171725
0.0314093
-0.000196878
0.0314317
-0.000579701
0.0314363
-0.00097666
0.0314225
-0.00138785
0.0313902
-0.00181335
0.0313389
-0.00225317
0.0312682
-0.00270729
0.031178
-0.00317561
0.0310679
-0.00365797
0.0309378
-0.00415417
0.0307873
-0.0046639
0.0306164
-0.00518681
0.0304251
-0.00572246
0.0302132
-0.00627036
0.029981
-0.00682991
0.0297285
-0.00740044
0.029456
-0.00798117
0.0291634
-0.00857116
0.0288507
-0.00916925
0.0285175
-0.00977396
0.0281626
-0.0103833
0.0277843
-0.0109945
0.0273799
-0.0116039
0.0269455
-0.0122066
0.0264762
-0.0127961
0.0259659
-0.0133642
0.0254087
-0.0139015
0.0247999
-0.0143989
0.0241378
-0.0148498
0.0234263
-0.0152517
0.0226753
-0.0156092
0.0218956
-0.0159355
0.0210909
-0.0162261
-0.0163927
0.0202572
0.0223925
0.00598598
-0.022001
0.0227803
0.00593285
0.0231641
0.00587485
0.0235437
0.00581184
0.0239186
0.00574366
0.0242887
0.0056701
0.0246534
0.00559095
0.0250126
0.005506
0.0253658
0.00541503
0.0257127
0.00531784
0.026053
0.0052142
0.0263862
0.00510387
0.0267119
0.00498661
0.0270298
0.00486219
0.0273394
0.00473036
0.0276405
0.00459084
0.0279325
0.0044434
0.028215
0.00428776
0.0284877
0.00412364
0.0287501
0.00395078
0.0290018
0.0037689
0.0292423
0.0035777
0.0294713
0.00337691
0.0296883
0.00316623
0.0298929
0.00294537
0.0300846
0.00271403
0.030263
0.00247193
0.0304277
0.00221877
0.0305783
0.00195427
0.0307143
0.00167814
0.0308353
0.00139012
0.030941
0.00108994
0.031031
0.000777341
0.0311048
0.000452164
0.0311623
0.000114289
0.031203
-0.00023763
0.0312266
-0.000603311
0.0312328
-0.000982807
0.0312212
-0.00137624
0.0311915
-0.00178371
0.0311436
-0.00220527
0.0310773
-0.00264093
0.0309923
-0.00309063
0.0308886
-0.00355426
0.0307661
-0.00403166
0.0306248
-0.00452258
0.0304647
-0.00502674
0.030286
-0.00554375
0.0300888
-0.00607313
0.0298732
-0.00661433
0.0296394
-0.00716661
0.0293873
-0.00772909
0.0291167
-0.00830063
0.0288272
-0.00887975
0.0285178
-0.00946452
0.0281869
-0.0100524
0.0278323
-0.0106399
0.0274509
-0.0112225
0.0270388
-0.0117946
0.0265915
-0.0123488
0.0261043
-0.012877
0.025574
-0.0133712
0.025
-0.013825
0.024387
-0.0142368
0.0237452
-0.0146098
0.0230875
-0.0149515
0.0224166
-0.0152646
0.0217071
-0.0155165
-0.0155687
0.0208831
0.0222196
0.00559451
-0.0218281
0.0226074
0.00554502
0.0229913
0.00549098
0.0233708
0.00543225
0.0237458
0.00536868
0.0241159
0.00530005
0.0244807
0.00522617
0.0248398
0.00514683
0.025193
0.00506184
0.0255399
0.00497097
0.0258801
0.00487402
0.0262132
0.00477076
0.0265388
0.00466097
0.0268566
0.0045444
0.0271662
0.00442081
0.0274671
0.00428996
0.0277589
0.00415158
0.0280412
0.00400542
0.0283136
0.00385121
0.0285757
0.00368868
0.0288271
0.00351755
0.0290673
0.00333753
0.0292958
0.00314834
0.0295124
0.00294969
0.0297165
0.00274128
0.0299077
0.00252282
0.0300856
0.002294
0.0302499
0.00205453
0.0304
0.00180412
0.0305357
0.00154248
0.0306565
0.00126931
0.0307621
0.000984353
0.0308521
0.000687313
0.0309262
0.000378047
0.0309843
5.62425e-05
0.0310259
-0.000279267
0.0310508
-0.000628216
0.0310587
-0.000990741
0.0310495
-0.00136701
0.031023
-0.00175716
0.030979
-0.00216129
0.0309175
-0.00257944
0.0308385
-0.00301161
0.0307419
-0.00345773
0.030628
-0.00391769
0.0304967
-0.00439128
0.0303482
-0.00487823
0.0301826
-0.00537816
0.03
-0.00589056
0.0298005
-0.0064148
0.0295839
-0.00695005
0.0293501
-0.00749524
0.0290984
-0.00804896
0.0288281
-0.00860943
0.0285378
-0.00917428
0.0282259
-0.00974041
0.0278898
-0.0103038
0.0275267
-0.0108594
0.0271331
-0.011401
0.0267059
-0.0119215
0.0262431
-0.0124142
0.0257457
-0.0128738
0.0252197
-0.0132989
0.0246766
-0.0136938
0.0241313
-0.0140645
0.0235935
-0.0144136
0.0230489
-0.01472
0.0224424
-0.0149101
-0.0148149
0.0216886
0.0220717
0.00520289
-0.0216801
0.0224597
0.00515703
0.0228438
0.00510693
0.0232236
0.00505247
0.0235988
0.00499348
0.023969
0.00492978
0.024334
0.00486117
0.0246934
0.00478745
0.0250468
0.00470843
0.0253939
0.0046239
0.0257343
0.00453366
0.0260675
0.0044375
0.0263933
0.00433518
0.0267112
0.00422649
0.0270208
0.00411118
0.0273218
0.00398901
0.0276136
0.00385974
0.0278959
0.00372309
0.0281683
0.00357882
0.0284304
0.00342666
0.0286816
0.00326631
0.0289216
0.00309751
0.02915
0.00291996
0.0293663
0.00273337
0.0295701
0.00253744
0.0297611
0.00233186
0.0299388
0.00211632
0.0301028
0.00189054
0.0302527
0.00165418
0.0303883
0.00140695
0.030509
0.00114854
0.0306147
0.000878656
0.030705
0.000596988
0.0307797
0.00030339
0.0308386
-2.6957e-06
0.0308815
-0.00032214
0.0309081
-0.000654813
0.0309183
-0.00100092
0.0309119
-0.00136067
0.030889
-0.00173424
0.0308495
-0.00212177
0.0307934
-0.00252335
0.0307208
-0.002939
0.0306318
-0.00336868
0.0305264
-0.00381229
0.0304047
-0.00426964
0.0302669
-0.00474042
0.030113
-0.00522423
0.0299429
-0.00572049
0.0297566
-0.00622846
0.0295537
-0.00674715
0.0293338
-0.00727533
0.0290961
-0.00781134
0.0288398
-0.00835308
0.0285633
-0.00889782
0.028265
-0.00944203
0.0279425
-0.00998136
0.0275935
-0.0105105
0.0272162
-0.0110237
0.0268101
-0.0115154
0.026378
-0.0119821
0.0259274
-0.0124232
0.0254717
-0.0128432
0.0250274
-0.0132495
0.0246062
-0.0136433
0.0241981
-0.0140056
0.0237507
-0.0142725
0.0231617
-0.0143211
-0.0139778
0.0223246
0.0219513
0.00481084
-0.0215592
0.0223397
0.0047686
0.0227242
0.00472244
0.0231044
0.00467223
0.0234801
0.00461783
0.0238508
0.00455904
0.0242163
0.00449569
0.0245762
0.00442758
0.0249301
0.00435453
0.0252776
0.00427635
0.0256184
0.00419284
0.0259521
0.00410378
0.0262784
0.00400897
0.0265967
0.00390818
0.0269067
0.00380117
0.027208
0.00368772
0.0275001
0.00356758
0.0277827
0.00344049
0.0280554
0.00330619
0.0283176
0.00316442
0.028569
0.0030149
0.0288092
0.00285734
0.0290377
0.00269146
0.0292541
0.00251694
0.0294581
0.00233349
0.0296491
0.00214079
0.0298269
0.00193853
0.0299911
0.00172638
0.0301412
0.00150401
0.0302771
0.00127111
0.0303983
0.00102734
0.0305046
0.000772367
0.0305957
0.000505877
0.0306714
0.000227685
0.0307317
-6.29866e-05
0.0307762
-0.000366708
0.0308049
-0.000683511
0.0308177
-0.00101366
0.0308144
-0.0013574
0.0307951
-0.00171495
0.0307598
-0.00208648
0.0307086
-0.00247209
0.0306414
-0.00287184
0.0305584
-0.0032857
0.0304597
-0.00371357
0.0303453
-0.00415522
0.0302152
-0.00461032
0.0300694
-0.0050784
0.0299077
-0.0055588
0.0297299
-0.00605067
0.0295356
-0.00655289
0.0293243
-0.00706402
0.0290952
-0.00758219
0.0288471
-0.00810503
0.0285788
-0.00862953
0.0282888
-0.00915198
0.0279755
-0.00966812
0.0276384
-0.0101734
0.0272787
-0.010664
0.026901
-0.0111377
0.0265151
-0.0115962
0.0261362
-0.0120443
0.0257826
-0.0124896
0.0254667
-0.0129336
0.0251785
-0.0133551
0.0248649
-0.013692
0.0244212
-0.0138289
0.0237192
-0.0136191
-0.0129281
0.0226695
0.0218609
0.00441803
-0.0214681
0.0222501
0.0043794
0.0226354
0.00433717
0.0230164
0.00429121
0.0233929
0.00424137
0.0237645
0.00418749
0.0241308
0.00412938
0.0244915
0.00406688
0.0248462
0.00399979
0.0251946
0.00392795
0.0255363
0.00385115
0.0258709
0.0037692
0.026198
0.00368189
0.0265171
0.00358901
0.026828
0.00349032
0.0271301
0.00338559
0.0274231
0.00327459
0.0277065
0.00315706
0.02798
0.00303275
0.028243
0.00290138
0.0284952
0.00276269
0.0287362
0.00261637
0.0289655
0.00246215
0.0291827
0.00229971
0.0293875
0.00212873
0.0295794
0.00194891
0.029758
0.0017599
0.029923
0.00156137
0.0300741
0.00135297
0.0302108
0.00113435
0.030333
0.000905164
0.0304403
0.00066505
0.0305325
0.000413677
0.0306094
0.000150782
0.030671
-0.000124553
0.0307169
-0.000412645
0.0307471
-0.000713695
0.0307615
-0.00102802
0.03076
-0.0013559
0.0307426
-0.00169759
0.0307094
-0.00205328
0.0306604
-0.00242312
0.0305957
-0.00280717
0.0305154
-0.0032054
0.0304196
-0.0036177
0.0303082
-0.00404381
0.0301812
-0.00448334
0.0300385
-0.00493576
0.0298801
-0.00540031
0.0297054
-0.00587603
0.0295142
-0.00636163
0.0293057
-0.00685555
0.0290792
-0.00735567
0.0288336
-0.00785952
0.0285682
-0.00836406
0.0282822
-0.00886602
0.0279763
-0.00936225
0.0276536
-0.00985059
0.0273207
-0.0103311
0.0269898
-0.0108069
0.0266785
-0.0112848
0.0264059
-0.0117718
0.0261838
-0.0122674
0.0259982
-0.012748
0.0257906
-0.0131474
0.025451
-0.0133524
0.0248467
-0.0132246
0.0238811
-0.0126534
-0.0115937
0.0225467
0.0218049
0.00402393
-0.0214108
0.0221954
0.00398888
0.022582
0.00395055
0.0229644
0.0039088
0.0233423
0.00386351
0.0237153
0.00381451
0.024083
0.00376162
0.0244452
0.00370469
0.0248015
0.00364354
0.0251514
0.00357801
0.0254947
0.0035079
0.0258308
0.00343303
0.0261595
0.00335319
0.0264804
0.00326818
0.0267929
0.00317778
0.0270968
0.00308175
0.0273915
0.00297988
0.0276766
0.0028719
0.0279518
0.00275756
0.0282166
0.00263661
0.0284705
0.00250876
0.0287132
0.00237373
0.0289441
0.00223122
0.0291629
0.00208092
0.0293691
0.00192252
0.0295623
0.00175567
0.0297422
0.00158003
0.0299083
0.00139526
0.0300603
0.00120099
0.0301978
0.00099685
0.0303205
0.000782459
0.0304281
0.000557428
0.0305204
0.000321415
0.0305971
7.40183e-05
0.0306583
-0.000185684
0.0307035
-0.000457899
0.0307328
-0.000742966
0.030746
-0.00104125
0.0307432
-0.00135308
0.0307244
-0.00167874
0.0306896
-0.00201847
0.0306388
-0.00237242
0.0305723
-0.00274066
0.0304901
-0.00312318
0.0303922
-0.00351982
0.0302787
-0.00393031
0.0301496
-0.00435418
0.0300046
-0.00479082
0.0298437
-0.00523936
0.0296664
-0.00569874
0.0294723
-0.00616751
0.0292607
-0.00664399
0.0290311
-0.00712604
0.028783
-0.00761145
0.0285168
-0.00809786
0.0282345
-0.00858369
0.0279408
-0.0090686
0.0276452
-0.00955497
0.0273621
-0.010048
0.0271109
-0.0105557
0.0269105
-0.0110844
0.0267685
-0.0116298
0.026663
-0.0121619
0.0265241
-0.0126091
0.0262331
-0.0128563
0.0256565
-0.0127759
0.0247053
-0.0122734
0.0233737
-0.0113219
-0.00995195
0.021732
0.0217898
0.00362781
-0.0213936
0.0221824
0.00359627
0.0225712
0.00356176
0.0229558
0.00352417
0.023336
0.00348335
0.0237113
0.00343915
0.0240815
0.00339142
0.0244462
0.00334001
0.024805
0.00328474
0.0251575
0.00322546
0.0255034
0.003162
0.0258423
0.00309417
0.0261737
0.00302178
0.0264973
0.00294463
0.0268125
0.00286253
0.027119
0.00277524
0.0274163
0.00268255
0.027704
0.00258421
0.0279816
0.00247998
0.0282486
0.00236958
0.0285046