/*--------------------------------*- C++ -*----------------------------------*\
| =========                 |                                                 |
| \\      /  F ield         | OpenFOAM: The Open Source CFD Toolbox           |
|  \\    /   O peration     | Version:  2312                                  |
|   \\  /    A nd           | Website:  www.openfoam.com                      |
|    \\/     M anipulation  |                                                 |
\*---------------------------------------------------------------------------*/
FoamFile
{
    version     2.0;
    format      ascii;
    arch        "LSB;label=32;scalar=64";
    class       volVectorField;
    location    "1700";
    object      U;
}
// * * * * * * * * * * * * * * * * * * * * * * * * * * * * * * * * * * * * * //

dimensions      [0 1 -1 0 0 0 0];

internalField   nonuniform List<vector> 
76025
(
(0.935877 -0.126884 0)
(0.939787 -0.128488 1.19772e-20)
(0.943799 -0.130005 0)
(0.947857 -0.131428 0)
(0.951892 -0.132739 -1.98221e-20)
(0.956049 -0.133865 -3.56149e-20)
(0.960184 -0.134982 5.99863e-20)
(0.964406 -0.135875 -2.4876e-20)
(0.968568 -0.136732 -7.18357e-21)
(0.972776 -0.137435 6.51322e-21)
(0.976952 -0.138021 2.05303e-22)
(0.981169 -0.138438 1.47309e-20)
(0.98541 -0.13879 -1.98834e-20)
(0.989647 -0.13894 0)
(0.993945 -0.138917 3.21193e-21)
(0.998158 -0.13891 0)
(1.0024 -0.138598 0)
(1.00664 -0.138319 0)
(1.01084 -0.137808 1.16562e-21)
(1.01496 -0.137318 -4.63779e-23)
(1.01906 -0.13657 5.71933e-22)
(1.02319 -0.135735 3.04572e-21)
(1.02725 -0.134707 -2.42277e-21)
(1.03125 -0.133544 -7.10469e-21)
(1.03518 -0.132336 -1.10368e-21)
(1.03904 -0.131051 -4.64027e-21)
(1.0429 -0.129446 1.16765e-20)
(1.04659 -0.127836 -1.20979e-20)
(1.05022 -0.126066 4.45927e-21)
(1.05383 -0.123987 -4.92773e-21)
(1.05718 -0.122244 -5.54475e-21)
(1.0603 -0.120422 1.33353e-20)
(1.06333 -0.118204 -2.05501e-20)
(1.0662 -0.116074 -3.868e-21)
(1.06897 -0.113711 1.98967e-20)
(1.07152 -0.111446 1.87456e-22)
(1.07397 -0.109159 -4.02909e-21)
(1.07621 -0.106744 2.28781e-21)
(1.07816 -0.10439 2.35088e-22)
(1.07991 -0.101917 -3.26976e-21)
(1.08144 -0.0995269 2.19464e-21)
(1.08282 -0.0972202 -1.04094e-21)
(1.08385 -0.0947999 2.05376e-21)
(1.08457 -0.0924382 -4.06271e-21)
(1.08508 -0.0900901 -4.18023e-21)
(1.0854 -0.0879315 7.53315e-21)
(1.08539 -0.0858571 7.81027e-21)
(1.08502 -0.0837987 -2.32682e-20)
(1.08445 -0.0818922 1.35925e-20)
(1.08369 -0.080218 -1.2067e-21)
(1.08268 -0.0787352 -3.21874e-20)
(1.08135 -0.0775093 -1.09375e-20)
(1.07965 -0.0765885 1.147e-20)
(1.07757 -0.0759624 0)
(1.07506 -0.075547 -7.25453e-21)
(1.0723 -0.0754631 -7.30637e-21)
(1.06911 -0.0758495 -6.11669e-23)
(1.06546 -0.0767113 -4.05255e-21)
(1.06144 -0.0782805 2.69796e-22)
(1.05679 -0.0807004 2.62922e-21)
(1.05135 -0.0838623 4.71058e-21)
(1.04521 -0.0878252 -2.42515e-21)
(1.0384 -0.0927674 0)
(1.03118 -0.0990456 -5.64495e-20)
(1.02328 -0.106831 3.01761e-20)
(1.01589 -0.115828 -1.54146e-20)
(1.00957 -0.12844 4.11317e-20)
(1.00298 -0.144228 -4.58241e-20)
(0.993534 -0.160964 -1.06045e-19)
(0.933227 -0.134195 1.30858e-20)
(0.937395 -0.135854 3.58453e-20)
(0.941621 -0.137402 -4.78667e-20)
(0.945907 -0.138821 0)
(0.95021 -0.140142 4.95552e-20)
(0.954613 -0.141314 -2.71177e-21)
(0.959014 -0.14237 -3.63052e-20)
(0.963447 -0.143293 0)
(0.967905 -0.144082 1.4045e-22)
(0.97237 -0.144747 -6.67783e-21)
(0.976848 -0.145275 5.99212e-21)
(0.981322 -0.14566 2.52342e-22)
(0.985778 -0.145916 0)
(0.990233 -0.14603 0)
(0.994701 -0.145967 4.97721e-21)
(0.999129 -0.145809 -1.34444e-20)
(1.00358 -0.145466 -1.54889e-21)
(1.00797 -0.145024 2.44823e-21)
(1.01236 -0.144403 -1.5849e-21)
(1.01668 -0.14369 4.74317e-23)
(1.02098 -0.142814 1.75111e-21)
(1.02521 -0.141807 -2.34242e-21)
(1.02937 -0.140653 4.86316e-21)
(1.03346 -0.139358 -8.53293e-21)
(1.03749 -0.137932 6.12207e-21)
(1.04145 -0.136399 1.21615e-20)
(1.04534 -0.134717 -8.57482e-21)
(1.0491 -0.132925 0)
(1.05276 -0.131017 0)
(1.05631 -0.12899 -6.79217e-21)
(1.05971 -0.126906 0)
(1.06297 -0.124712 -7.93715e-21)
(1.06607 -0.122391 8.17946e-21)
(1.06898 -0.119973 -1.27819e-20)
(1.07175 -0.117466 5.09395e-22)
(1.07436 -0.114882 -4.50195e-21)
(1.0768 -0.112263 0)
(1.079 -0.109672 -9.92344e-21)
(1.08095 -0.107037 7.55331e-21)
(1.0827 -0.104376 -6.13079e-21)
(1.08423 -0.101704 3.72498e-21)
(1.08556 -0.0990366 -2.87241e-24)
(1.0866 -0.0964533 1.30483e-21)
(1.08736 -0.0938497 -1.21084e-21)
(1.08789 -0.0913008 9.73774e-21)
(1.08819 -0.0888111 -4.8452e-21)
(1.08821 -0.0864561 -4.97669e-21)
(1.08791 -0.0841674 8.22983e-21)
(1.08735 -0.0819838 2.47589e-20)
(1.08653 -0.0799602 -5.82885e-22)
(1.08541 -0.0781372 2.18195e-20)
(1.08394 -0.0765525 -6.60167e-21)
(1.08208 -0.0752192 -1.71905e-20)
(1.0798 -0.0741375 1.18146e-20)
(1.0771 -0.073352 0)
(1.07397 -0.0728882 2.40071e-20)
(1.07039 -0.07287 -1.70572e-21)
(1.06629 -0.0733199 -5.56908e-21)
(1.06166 -0.0743433 -3.51451e-21)
(1.05641 -0.0760906 0)
(1.05042 -0.0786107 -1.73241e-21)
(1.04369 -0.0820294 -1.29538e-20)
(1.03621 -0.0863226 0)
(1.02821 -0.0918354 2.13234e-20)
(1.0199 -0.0989038 -1.28058e-20)
(1.01202 -0.107788 3.31809e-20)
(1.00457 -0.119235 -1.79679e-20)
(0.997755 -0.132992 4.68742e-20)
(0.989572 -0.148349 5.33128e-20)
(0.930404 -0.141917 -6.5403e-20)
(0.934841 -0.143609 3.94466e-20)
(0.939326 -0.145189 -1.19266e-20)
(0.943861 -0.146629 4.30624e-20)
(0.948442 -0.14794 -5.31523e-20)
(0.953073 -0.149118 -3.68117e-20)
(0.957744 -0.150156 4.53697e-20)
(0.96245 -0.151054 0)
(0.967183 -0.151807 1.92907e-22)
(0.97193 -0.152415 0)
(0.976683 -0.152878 -5.59233e-21)
(0.981433 -0.153193 5.13704e-21)
(0.986171 -0.153357 1.9616e-20)
(0.990891 -0.153374 -1.55282e-20)
(0.995594 -0.153235 2.98075e-21)
(1.00028 -0.152942 5.66789e-21)
(1.00494 -0.152498 -1.82126e-21)
(1.00956 -0.151899 -8.75715e-22)
(1.01415 -0.151151 1.2794e-21)
(1.01869 -0.150248 -8.75536e-22)
(1.02317 -0.149202 -1.83859e-21)
(1.02757 -0.148009 5.00553e-21)
(1.0319 -0.14667 -1.7821e-21)
(1.03615 -0.145181 -3.92418e-21)
(1.04032 -0.14355 0)
(1.0444 -0.141783 5.27156e-21)
(1.04836 -0.139891 5.59593e-21)
(1.05222 -0.137866 -5.01711e-21)
(1.05595 -0.135713 0)
(1.05956 -0.133445 1.47264e-20)
(1.06304 -0.131057 -8.46536e-21)
(1.06637 -0.128563 -1.03788e-21)
(1.06952 -0.125971 0)
(1.07251 -0.123265 4.55725e-21)
(1.07532 -0.120468 -1.51945e-20)
(1.07795 -0.117576 1.05073e-20)
(1.08037 -0.11469 0)
(1.08256 -0.111796 8.20371e-21)
(1.08453 -0.108861 -8.42926e-21)
(1.08628 -0.105902 -1.32689e-21)
(1.0878 -0.102934 0)
(1.08907 -0.0999841 -2.78313e-21)
(1.09009 -0.0970687 -1.37627e-21)
(1.09084 -0.0941614 1.20622e-21)
(1.09133 -0.091297 -7.74327e-21)
(1.09156 -0.0885015 -5.49651e-21)
(1.0915 -0.0858065 9.62518e-21)
(1.09113 -0.0831978 -9.65439e-21)
(1.09046 -0.0806973 9.87003e-21)
(1.08948 -0.0783474 -9.11796e-21)
(1.08816 -0.0761808 -7.9751e-21)
(1.08646 -0.0742238 1.68666e-20)
(1.08436 -0.0724926 0)
(1.08182 -0.0710096 1.42639e-20)
(1.07882 -0.0698034 1.76494e-21)
(1.07533 -0.0689204 -9.49696e-21)
(1.07132 -0.0684351 -7.45989e-21)
(1.06674 -0.068406 1.28394e-20)
(1.06156 -0.0689226 -1.83465e-21)
(1.05571 -0.0700915 3.08812e-21)
(1.0491 -0.071976 -1.26825e-21)
(1.0417 -0.0746587 -3.32139e-22)
(1.03363 -0.0783057 -3.0415e-21)
(1.0251 -0.0831594 7.26244e-21)
(1.01643 -0.0895522 1.15183e-20)
(1.00815 -0.0977402 4.24901e-20)
(0.999999 -0.108293 0)
(0.992089 -0.121014 2.43185e-20)
(0.982112 -0.135828 -2.31918e-20)
(0.92741 -0.150106 0)
(0.932161 -0.151823 1.29516e-20)
(0.936959 -0.153423 5.91888e-20)
(0.941792 -0.154877 -4.67808e-20)
(0.946663 -0.156184 -2.9818e-20)
(0.951575 -0.157349 4.96679e-20)
(0.956527 -0.158364 -8.86566e-21)
(0.96151 -0.159225 7.86599e-21)
(0.966519 -0.15993 7.26171e-21)
(0.971544 -0.160479 2.37786e-20)
(0.976579 -0.160869 -2.33776e-20)
(0.981615 -0.1611 -1.7332e-20)
(0.986644 -0.161169 6.09522e-21)
(0.991655 -0.161076 1.25406e-20)
(0.996641 -0.160819 -7.56136e-21)
(1.0016 -0.160397 1.28387e-21)
(1.00651 -0.159812 -4.9152e-22)
(1.01139 -0.159063 2.93205e-22)
(1.01621 -0.158152 -2.60144e-21)
(1.02096 -0.15708 3.53581e-22)
(1.02565 -0.155849 1.86294e-21)
(1.03026 -0.15446 0)
(1.03479 -0.152913 8.84001e-21)
(1.03923 -0.151211 -4.0767e-21)
(1.04356 -0.149361 -1.08232e-20)
(1.04779 -0.147365 -1.29153e-20)
(1.05189 -0.145228 2.52285e-20)
(1.05588 -0.142953 -1.4307e-20)
(1.05973 -0.140546 0)
(1.06344 -0.138013 -1.69276e-20)
(1.06699 -0.135362 -7.89626e-22)
(1.07038 -0.132602 1.85756e-20)
(1.07359 -0.129735 -1.05318e-20)
(1.07663 -0.126763 2.74957e-20)
(1.07947 -0.123697 -5.1769e-21)
(1.08212 -0.12054 0)
(1.08455 -0.117378 0)
(1.08676 -0.114184 3.24476e-21)
(1.08874 -0.110952 2.95398e-21)
(1.09048 -0.107698 1.63833e-21)
(1.09198 -0.104434 -5.11586e-23)
(1.09323 -0.101176 1.47591e-21)
(1.09422 -0.0979346 0)
(1.09493 -0.0947175 -3.02509e-22)
(1.09536 -0.0915425 0)
(1.09551 -0.0884279 5.2034e-21)
(1.09536 -0.0853903 -9.24695e-23)
(1.09489 -0.0824399 -1.71907e-20)
(1.09409 -0.0795948 0)
(1.09295 -0.0768829 -9.94844e-21)
(1.09144 -0.0743296 9.83295e-21)
(1.08953 -0.0719596 -1.70816e-20)
(1.08718 -0.0697942 0)
(1.08437 -0.0678605 -4.58642e-20)
(1.08106 -0.066189 1.68832e-21)
(1.07723 -0.0648245 1.32684e-20)
(1.07283 -0.0638213 1.13167e-20)
(1.06783 -0.063242 0)
(1.06216 -0.0631558 0)
(1.05578 -0.0636513 -3.13036e-21)
(1.04862 -0.0648098 1.28479e-21)
(1.04073 -0.0667513 -4.10361e-21)
(1.03225 -0.0696461 0)
(1.0234 -0.0737205 1.22288e-20)
(1.01449 -0.0793102 0)
(1.00579 -0.0866353 -4.4715e-20)
(0.996682 -0.0960796 1.52354e-20)
(0.987166 -0.1076 2.28003e-20)
(0.97526 -0.121067 2.41871e-20)
(0.924274 -0.15883 0)
(0.929342 -0.160569 0)
(0.93447 -0.162182 1.23758e-20)
(0.939632 -0.163639 -4.41914e-20)
(0.944829 -0.164941 5.44535e-20)
(0.950062 -0.166088 -9.72237e-21)
(0.955325 -0.167074 0)
(0.96061 -0.167894 -7.98699e-21)
(0.965914 -0.168546 0)
(0.971232 -0.169028 -1.14154e-20)
(0.976559 -0.16934 2.06577e-21)
(0.981887 -0.169481 9.65125e-21)
(0.987207 -0.169446 0)
(0.99251 -0.169237 -4.55806e-21)
(0.997784 -0.168854 1.11067e-20)
(1.00302 -0.168295 -4.69666e-21)
(1.00822 -0.16756 1.30192e-21)
(1.01336 -0.16665 1.20939e-22)
(1.01844 -0.165565 -1.81086e-21)
(1.02344 -0.164308 1.86411e-21)
(1.02837 -0.16288 3.35835e-21)
(1.03321 -0.161284 -1.10573e-20)
(1.03795 -0.159522 -9.17916e-21)
(1.04259 -0.157595 0)
(1.04712 -0.15551 1.28436e-20)
(1.05152 -0.153271 7.72759e-21)
(1.05579 -0.150884 -2.13914e-20)
(1.05992 -0.148351 7.72383e-21)
(1.06391 -0.14568 -1.84895e-20)
(1.06773 -0.142875 2.76854e-20)
(1.07139 -0.139945 -1.09213e-20)
(1.07487 -0.136895 5.79726e-21)
(1.07816 -0.133732 0)
(1.08126 -0.130464 -5.7969e-21)
(1.08415 -0.127093 -6.09151e-21)
(1.08684 -0.123626 0)
(1.08929 -0.120143 7.14913e-21)
(1.09152 -0.116621 -1.01985e-20)
(1.0935 -0.113064 6.83419e-21)
(1.09523 -0.109482 -3.47233e-21)
(1.09671 -0.105888 -6.21456e-23)
(1.09793 -0.102293 -2.6756e-21)
(1.09887 -0.0987115 8.5253e-22)
(1.09952 -0.0951538 3.22177e-21)
(1.09988 -0.0916324 3.69568e-22)
(1.09994 -0.0881625 1.962e-20)
(1.09968 -0.0847595 0)
(1.09908 -0.0814386 1.17547e-20)
(1.09814 -0.078216 -8.37751e-22)
(1.09682 -0.075112 -1.16363e-20)
(1.09511 -0.0721478 0)
(1.09298 -0.069346 -1.00794e-20)
(1.0904 -0.0667281 9.97032e-21)
(1.08732 -0.0643201 1.68302e-20)
(1.08373 -0.062151 0)
(1.07959 -0.0602601 -2.74284e-20)
(1.07484 -0.0586936 2.56097e-20)
(1.06946 -0.0575068 -2.15762e-20)
(1.06337 -0.0567629 -2.16048e-22)
(1.05656 -0.0565406 0)
(1.049 -0.0569342 -2.36077e-21)
(1.04079 -0.0580767 -4.05661e-22)
(1.03209 -0.0601498 -9.55138e-22)
(1.02309 -0.0633678 -1.22541e-20)
(1.01398 -0.0680307 2.4293e-20)
(1.00465 -0.074285 -2.34818e-20)
(0.9943 -0.0824426 1.32516e-20)
(0.982842 -0.0926272 -1.40027e-20)
(0.968637 -0.104363 -6.73341e-20)
(0.921071 -0.168162 -5.59851e-20)
(0.926435 -0.169919 3.57308e-21)
(0.931878 -0.171539 5.21492e-20)
(0.937371 -0.172993 0)
(0.942907 -0.174281 -1.06898e-20)
(0.948483 -0.175404 0)
(0.954088 -0.176353 1.65141e-20)
(0.959712 -0.177125 -1.82497e-21)
(0.965345 -0.177717 -2.11763e-20)
(0.970985 -0.178127 5.67491e-21)
(0.976629 -0.178353 5.13913e-21)
(0.982266 -0.178393 3.76675e-21)
(0.98789 -0.178246 0)
(0.993494 -0.177911 0)
(0.999067 -0.177387 -1.58381e-21)
(1.0046 -0.176674 -7.15784e-22)
(1.01008 -0.175775 -1.82324e-21)
(1.0155 -0.174687 1.82253e-21)
(1.02086 -0.173412 4.47651e-21)
(1.02613 -0.171952 -6.97028e-21)
(1.03132 -0.170312 1.47152e-20)
(1.03641 -0.168492 6.96598e-22)
(1.04139 -0.166495 -1.12811e-20)
(1.04625 -0.164326 -6.9038e-21)
(1.05098 -0.161987 -1.5059e-20)
(1.05558 -0.159483 1.51095e-20)
(1.06003 -0.156821 1.81055e-20)
(1.06433 -0.154005 -1.81934e-20)
(1.06846 -0.151041 0)
(1.07242 -0.147937 0)
(1.07619 -0.144698 2.91131e-20)
(1.07978 -0.141333 1.25632e-21)
(1.08316 -0.137848 -1.27268e-20)
(1.08633 -0.134255 -1.39202e-20)
(1.08929 -0.130553 1.40715e-20)
(1.09202 -0.126755 0)
(1.0945 -0.122937 -7.19307e-21)
(1.09674 -0.119078 -1.17034e-20)
(1.09872 -0.115182 7.59219e-21)
(1.10045 -0.111258 -1.85037e-22)
(1.1019 -0.107319 -5.9805e-22)
(1.10307 -0.103376 2.77855e-21)
(1.10396 -0.099441 1.99447e-21)
(1.10455 -0.0955255 3.75188e-21)
(1.10483 -0.0916413 -1.81462e-20)
(1.10479 -0.087802 3.6057e-22)
(1.10441 -0.0840213 0)
(1.10369 -0.0803131 -1.45725e-20)
(1.10259 -0.0766917 4.011e-20)
(1.10111 -0.0731735 -2.67257e-20)
(1.09922 -0.0697763 -1.21347e-20)
(1.09689 -0.0665196 -4.85451e-22)
(1.09409 -0.0634232 -9.76896e-21)
(1.09079 -0.0605106 1.30893e-21)
(1.08695 -0.0578082 1.98424e-20)
(1.08254 -0.0553493 -1.88326e-20)
(1.07751 -0.053173 -1.45728e-20)
(1.07181 -0.051327 2.68436e-20)
(1.06542 -0.0498704 -2.2827e-21)
(1.05831 -0.0488809 7.58847e-21)
(1.05054 -0.0484615 -7.48013e-21)
(1.04222 -0.0487541 2.22399e-21)
(1.03348 -0.0499282 1.4624e-21)
(1.0244 -0.052174 4.30072e-21)
(1.01496 -0.0557404 -1.06434e-20)
(1.00472 -0.060701 8.00362e-21)
(0.992852 -0.0673476 3.71403e-20)
(0.979212 -0.0759538 2.08972e-20)
(0.962515 -0.0855021 0)
(0.917876 -0.178151 0)
(0.92354 -0.179921 -1.38313e-20)
(0.92929 -0.181543 -3.48363e-23)
(0.935102 -0.182988 0)
(0.940969 -0.184252 0)
(0.946887 -0.185339 -9.52509e-21)
(0.952843 -0.186242 2.4699e-20)
(0.958823 -0.186954 -3.03371e-20)
(0.964813 -0.187474 1.44883e-20)
(0.970805 -0.1878 -5.75511e-21)
(0.976793 -0.187928 0)
(0.98277 -0.187857 -3.81768e-21)
(0.988727 -0.187585 2.2717e-21)
(0.994654 -0.187111 0)
(1.00054 -0.186434 0)
(1.00639 -0.185554 8.40928e-22)
(1.01217 -0.184473 1.87611e-21)
(1.01789 -0.183192 -3.4086e-21)
(1.02353 -0.181711 -6.19589e-21)
(1.02909 -0.180033 7.09136e-21)
(1.03455 -0.178158 4.43072e-21)
(1.03989 -0.176093 2.40372e-20)
(1.04512 -0.173839 9.28551e-22)
(1.05022 -0.171401 -8.85592e-21)
(1.05517 -0.168783 1.5867e-20)
(1.05998 -0.165992 -9.30625e-21)
(1.06462 -0.163032 1.92021e-20)
(1.06909 -0.15991 0)
(1.07339 -0.156632 0)
(1.07749 -0.153206 0)
(1.08139 -0.14964 -6.21784e-21)
(1.08509 -0.145942 -1.34121e-20)
(1.08857 -0.142119 1.42693e-20)
(1.09182 -0.138183 1.5531e-20)
(1.09484 -0.134134 -1.56926e-20)
(1.09761 -0.12999 0)
(1.10013 -0.125822 8.46423e-21)
(1.10238 -0.121607 -4.32033e-21)
(1.10437 -0.117351 0)
(1.10608 -0.113065 4.26722e-21)
(1.10751 -0.10876 -7.88113e-22)
(1.10864 -0.104446 5.27314e-22)
(1.10947 -0.100137 -2.00967e-21)
(1.10999 -0.0958419 0)
(1.11019 -0.0915735 -8.19533e-21)
(1.11005 -0.0873434 8.09671e-21)
(1.10957 -0.0831634 0)
(1.10872 -0.0790456 -5.95294e-22)
(1.10749 -0.0750026 8.58155e-22)
(1.10586 -0.071048 1.37721e-20)
(1.10381 -0.0671964 0)
(1.10131 -0.0634634 -1.50434e-21)
(1.09833 -0.0598658 -1.19336e-20)
(1.09484 -0.0564228 -3.57957e-20)
(1.09081 -0.0531563 -8.89263e-22)
(1.08619 -0.0500929 1.90053e-20)
(1.08095 -0.0472659 0)
(1.07505 -0.0447178 0)
(1.06849 -0.0425075 1.57363e-20)
(1.06129 -0.0407132 0)
(1.05352 -0.03944 0)
(1.04526 -0.0388226 -3.05176e-21)
(1.03657 -0.0390009 -4.73775e-21)
(1.02735 -0.040135 -5.32921e-22)
(1.01735 -0.0424085 -2.58941e-21)
(1.00592 -0.0458497 -6.35215e-21)
(0.992308 -0.0507677 -1.07876e-20)
(0.976369 -0.0575864 -1.15427e-20)
(0.957333 -0.0647755 0)
(0.914688 -0.188853 0)
(0.920688 -0.190634 1.40503e-20)
(0.926773 -0.192254 -3.77483e-20)
(0.932916 -0.193683 1.29179e-20)
(0.939117 -0.194917 0)
(0.945376 -0.195961 2.77407e-20)
(0.95168 -0.196808 -4.24087e-20)
(0.958016 -0.19745 2.11305e-21)
(0.964369 -0.197884 3.1491e-20)
(0.970727 -0.19811 -6.4971e-21)
(0.97708 -0.198126 3.80466e-21)
(0.983418 -0.197928 2.71321e-21)
(0.989733 -0.197515 -5.24777e-21)
(0.996012 -0.196886 3.81426e-21)
(1.00225 -0.19604 -8.73815e-22)
(1.00842 -0.194977 -2.48783e-21)
(1.01453 -0.193697 8.37391e-21)
(1.02057 -0.192204 -1.59152e-21)
(1.02651 -0.190497 5.50022e-21)
(1.03235 -0.188579 -3.67031e-21)
(1.03809 -0.186451 1.88757e-21)
(1.04371 -0.184118 -4.16265e-20)
(1.04919 -0.181585 -9.10773e-21)
(1.05453 -0.178857 -1.77053e-21)
(1.05972 -0.175937 2.88055e-20)
(1.06474 -0.172834 -9.9184e-21)
(1.06958 -0.169553 2.36271e-20)
(1.07424 -0.166101 -3.67556e-20)
(1.07871 -0.162487 0)
(1.08296 -0.158718 -1.42703e-20)
(1.087 -0.154801 1.43651e-20)
(1.09081 -0.150746 8.0282e-22)
(1.09439 -0.146562 -8.56546e-21)
(1.09773 -0.142259 -8.94768e-21)
(1.10082 -0.137839 2.72976e-20)
(1.10364 -0.133325 -1.80524e-20)
(1.10619 -0.12878 1.42179e-20)
(1.10847 -0.124186 -1.86542e-20)
(1.11046 -0.119547 9.29762e-21)
(1.11216 -0.114876 -2.24719e-21)
(1.11356 -0.110184 0)
(1.11465 -0.105481 2.34743e-21)
(1.11543 -0.100779 -2.31858e-21)
(1.11588 -0.0960882 -4.60427e-21)
(1.11599 -0.0914193 1.36263e-20)
(1.11577 -0.0867825 -9.4494e-21)
(1.11518 -0.0821879 -8.81475e-21)
(1.11422 -0.0776457 0)
(1.11288 -0.073166 -3.41422e-20)
(1.11113 -0.0687595 3.23746e-20)
(1.10895 -0.064437 -1.47308e-20)
(1.10632 -0.0602101 1.47222e-20)
(1.10321 -0.0560913 1.57534e-20)
(1.09959 -0.0520946 2.66504e-20)
(1.09543 -0.0482364 2.39247e-20)
(1.09069 -0.0445382 0)
(1.08536 -0.0410289 -2.34816e-20)
(1.07941 -0.0377489 0)
(1.07287 -0.034756 4.63337e-22)
(1.06577 -0.0321244 -1.297e-20)
(1.05818 -0.0299502 1.33892e-20)
(1.05009 -0.0283428 7.84641e-21)
(1.0414 -0.027404 -8.35727e-21)
(1.03186 -0.0272592 -6.78515e-23)
(1.02103 -0.0280314 3.16433e-21)
(1.00818 -0.0297364 -9.97384e-21)
(0.992722 -0.0327266 -4.19015e-21)
(0.97457 -0.0375281 -1.19889e-20)
(0.953431 -0.0421052 1.19856e-20)
(0.91145 -0.200336 0)
(0.917838 -0.20213 0)
(0.924304 -0.203746 -2.48867e-20)
(0.930824 -0.205155 3.65833e-20)
(0.937396 -0.206354 1.04514e-20)
(0.944019 -0.207348 0)
(0.950684 -0.208129 0)
(0.957381 -0.208689 -6.78262e-21)
(0.964098 -0.209025 1.05878e-20)
(0.970824 -0.209138 -2.82355e-21)
(0.977548 -0.209023 -1.80813e-20)
(0.984257 -0.20868 3.22418e-21)
(0.99094 -0.208107 -6.00221e-22)
(0.997586 -0.207301 1.49203e-21)
(1.00418 -0.206263 1.37183e-21)
(1.01071 -0.204994 0)
(1.01716 -0.203494 0)
(1.02353 -0.201764 9.78885e-22)
(1.0298 -0.199807 -1.50188e-20)
(1.03596 -0.197624 5.64781e-21)
(1.04199 -0.19522 -7.84877e-21)
(1.04789 -0.192598 7.61153e-21)
(1.05365 -0.189764 9.44247e-21)
(1.05924 -0.186721 -8.47968e-21)
(1.06467 -0.183477 -1.04448e-20)
(1.06992 -0.180038 0)
(1.07497 -0.176412 0)
(1.07983 -0.172606 2.04807e-20)
(1.08447 -0.168628 0)
(1.08888 -0.164487 1.59892e-20)
(1.09306 -0.160193 -1.60894e-20)
(1.097 -0.155755 -8.23011e-21)
(1.10069 -0.151182 8.62146e-21)
(1.10411 -0.146486 1.89261e-20)
(1.10727 -0.141669 -9.37247e-21)
(1.11014 -0.136761 -1.02246e-20)
(1.11273 -0.131817 1.05712e-20)
(1.11502 -0.126822 0)
(1.11702 -0.121781 0)
(1.1187 -0.116706 2.71521e-21)
(1.12008 -0.111608 0)
(1.12113 -0.106498 0)
(1.12186 -0.101387 -7.82071e-21)
(1.12225 -0.0962838 1.03987e-20)
(1.12229 -0.0911986 -5.26431e-21)
(1.12199 -0.0861401 9.45602e-21)
(1.12132 -0.0811165 0)
(1.12028 -0.0761359 2.89022e-20)
(1.11885 -0.0712057 -9.88626e-22)
(1.11701 -0.0663332 0)
(1.11475 -0.0615253 -3.50308e-20)
(1.11204 -0.0567891 -1.20703e-21)
(1.10886 -0.0521321 -3.16572e-20)
(1.10518 -0.0475631 -1.63064e-20)
(1.10098 -0.043094 -2.82996e-20)
(1.09624 -0.0387424 2.79361e-20)
(1.09096 -0.0345336 2.3499e-20)
(1.08514 -0.0305053 0)
(1.07882 -0.0267082 -1.96776e-20)
(1.072 -0.0232032 2.7719e-21)
(1.06467 -0.020064 0)
(1.05671 -0.0173628 0)
(1.04788 -0.0151637 8.27632e-21)
(1.03778 -0.0135598 0)
(1.02587 -0.0126297 0)
(1.01148 -0.0124104 -3.01271e-21)
(0.994219 -0.0133172 4.98196e-21)
(0.974225 -0.0158417 3.08893e-21)
(0.951484 -0.0178772 0)
(0.908134 -0.212645 0)
(0.914953 -0.214449 0)
(0.921848 -0.21606 0)
(0.928791 -0.217446 1.16144e-20)
(0.935781 -0.218606 9.1002e-21)
(0.942816 -0.219543 -2.44377e-21)
(0.949885 -0.220249 -1.70103e-20)
(0.956978 -0.220717 6.86733e-21)
(0.964086 -0.220945 -5.06323e-21)
(0.971198 -0.220929 -8.23549e-21)
(0.978305 -0.22067 0)
(0.985393 -0.220165 0)
(0.992453 -0.219412 -1.12217e-21)
(0.999471 -0.218412 1.32332e-21)
(1.00643 -0.217162 -8.60218e-21)
(1.01333 -0.215665 -2.31184e-21)
(1.02014 -0.213921 7.13212e-21)
(1.02686 -0.211932 4.72373e-21)
(1.03346 -0.209701 -1.22473e-21)
(1.03995 -0.207229 0)
(1.0463 -0.204522 1.71933e-20)
(1.0525 -0.201584 0)
(1.05854 -0.198419 2.14147e-20)
(1.06441 -0.195035 -3.53486e-20)
(1.07009 -0.191437 3.79431e-20)
(1.07558 -0.187634 1.45475e-20)
(1.08086 -0.183633 -2.2885e-20)
(1.08591 -0.179442 2.38122e-20)
(1.09073 -0.175072 -1.61193e-20)
(1.09531 -0.170532 0)
(1.09964 -0.165832 -1.87266e-20)
(1.10371 -0.160982 -1.08415e-20)
(1.1075 -0.155994 1.97189e-20)
(1.11101 -0.150879 -2.09514e-20)
(1.11424 -0.145639 1.09893e-20)
(1.11717 -0.140313 -1.09847e-20)
(1.11979 -0.134947 -5.37154e-21)
(1.12211 -0.129527 5.93055e-21)
(1.12411 -0.124061 2.74604e-21)
(1.12578 -0.118561 -8.37834e-21)
(1.12714 -0.113038 -7.44856e-22)
(1.12816 -0.107503 0)
(1.12884 -0.101965 2.69777e-21)
(1.12918 -0.0964348 -5.34892e-21)
(1.12917 -0.0909196 5.28821e-21)
(1.12881 -0.0854269 0)
(1.12808 -0.0799631 0)
(1.12698 -0.0745338 1.08647e-20)
(1.1255 -0.0691432 -2.06696e-20)
(1.12361 -0.0637951 -4.08832e-20)
(1.12131 -0.0584921 7.77574e-20)
(1.11858 -0.0532369 -1.96638e-20)
(1.1154 -0.0480324 1.82944e-20)
(1.11176 -0.0428832 1.63267e-20)
(1.10764 -0.0377973 -3.2082e-20)
(1.10306 -0.0327882 3.16044e-20)
(1.09801 -0.0278761 0)
(1.0925 -0.0230898 -2.87635e-20)
(1.08653 -0.0184633 3.09868e-21)
(1.08006 -0.0140346 2.28294e-20)
(1.07296 -0.00984522 0)
(1.065 -0.00592806 0)
(1.0558 -0.00231639 0)
(1.04492 0.000922597 2.34947e-20)
(1.03178 0.0037338 8.14741e-21)
(1.01583 0.0060269 4.36792e-22)
(0.996985 0.00733618 -4.29328e-21)
(0.975403 0.00711776 -5.45664e-21)
(0.951829 0.00760734 -1.27674e-21)
(0.90471 -0.225887 0)
(0.911998 -0.227696 2.75639e-20)
(0.919365 -0.229296 -3.38065e-20)
(0.926779 -0.230655 1.59363e-20)
(0.934237 -0.231769 -3.18605e-20)
(0.941736 -0.232641 -8.62005e-21)
(0.949261 -0.233263 -7.21263e-21)
(0.956801 -0.233628 0)
(0.964346 -0.233733 9.57168e-21)
(0.971886 -0.233575 6.4437e-21)
(0.979414 -0.233153 -5.66369e-21)
(0.986916 -0.232468 4.08279e-22)
(0.99438 -0.231518 2.10522e-21)
(1.00179 -0.230301 1.34879e-21)
(1.00914 -0.228818 -1.27044e-20)
(1.01642 -0.22707 -2.47102e-21)
(1.0236 -0.225057 -2.43932e-21)
(1.03068 -0.222783 1.18945e-20)
(1.03764 -0.22025 7.09933e-21)
(1.04446 -0.217461 1.89503e-20)
(1.05114 -0.214421 -1.74549e-20)
(1.05765 -0.211136 0)
(1.06399 -0.207611 1.60436e-21)
(1.07014 -0.203853 0)
(1.07609 -0.19987 -1.36321e-20)
(1.08183 -0.195669 -1.46535e-20)
(1.08733 -0.191261 7.82721e-21)
(1.09259 -0.186655 0)
(1.09761 -0.18186 9.76362e-21)
(1.10236 -0.176888 1.98787e-20)
(1.10684 -0.17175 -1.99868e-20)
(1.11103 -0.166458 1.01662e-20)
(1.11494 -0.161024 -2.2552e-20)
(1.11854 -0.15546 4.54414e-20)
(1.12185 -0.149768 -1.17951e-20)
(1.12483 -0.143997 0)
(1.12749 -0.138183 -6.46102e-21)
(1.12983 -0.132314 5.61499e-22)
(1.13183 -0.1264 9.25672e-21)
(1.13351 -0.120453 -7.76747e-21)
(1.13484 -0.114486 1.48088e-21)
(1.13584 -0.108508 -4.74322e-21)
(1.13649 -0.102529 3.08046e-21)
(1.13679 -0.0965574 0)
(1.13674 -0.0906001 0)
(1.13634 -0.084663 0)
(1.13558 -0.0787502 1.23491e-20)
(1.13445 -0.0728645 1.21297e-20)
(1.13294 -0.0670075 0)
(1.13106 -0.061179 2.23671e-20)
(1.12878 -0.0553782 2.37665e-20)
(1.1261 -0.0496037 2.19017e-20)
(1.12303 -0.0438547 0)
(1.11955 -0.0381315 0)
(1.11567 -0.0324375 -3.59842e-20)
(1.11139 -0.0267787 3.53604e-20)
(1.10672 -0.021164 0)
(1.10163 -0.0156051 2.8378e-20)
(1.09606 -0.0101112 -2.60447e-20)
(1.08988 -0.00469169 -2.7995e-20)
(1.08287 0.000646855 2.22286e-20)
(1.07471 0.00590558 -2.17871e-20)
(1.06496 0.0110738 0)
(1.05313 0.0161021 -1.35479e-20)
(1.03875 0.0209388 1.10239e-21)
(1.02143 0.0254264 -2.56596e-20)
(1.00142 0.0291113 -1.77364e-20)
(0.978739 0.031304 9.11065e-21)
(0.955002 0.0349838 1.30661e-21)
(0.901195 -0.240143 7.78146e-21)
(0.90898 -0.241954 0)
(0.916847 -0.243538 6.48934e-21)
(0.924765 -0.244861 -2.71233e-20)
(0.932727 -0.245921 4.49035e-20)
(0.94073 -0.246717 -9.59928e-21)
(0.948758 -0.247244 7.27043e-21)
(0.956796 -0.247495 -9.70237e-21)
(0.964832 -0.247464 5.16235e-21)
(0.972854 -0.247152 3.11339e-21)
(0.980854 -0.246555 8.14203e-22)
(0.988817 -0.245674 1.06804e-21)
(0.996732 -0.244507 5.33933e-22)
(1.00458 -0.243053 1.02699e-20)
(1.01236 -0.241313 6.19216e-21)
(1.02005 -0.239289 2.63622e-21)
(1.02763 -0.236981 -1.20967e-20)
(1.03509 -0.234393 0)
(1.04243 -0.231529 0)
(1.04961 -0.228392 -1.13121e-20)
(1.05663 -0.224987 -1.0916e-20)
(1.06348 -0.221322 -2.6929e-20)
(1.07013 -0.217402 1.37115e-20)
(1.07657 -0.213235 3.15157e-20)
(1.0828 -0.208831 -3.15565e-20)
(1.08879 -0.204198 9.23672e-21)
(1.09453 -0.199346 9.79278e-21)
(1.10001 -0.194287 0)
(1.10522 -0.189031 -9.80908e-21)
(1.11015 -0.183592 -2.20595e-20)
(1.11478 -0.177981 -8.50237e-22)
(1.11911 -0.172212 2.315e-20)
(1.12313 -0.166298 -1.28619e-20)
(1.12683 -0.160253 0)
(1.13021 -0.154077 6.88886e-21)
(1.13325 -0.147833 -7.00952e-21)
(1.13594 -0.141542 6.45697e-21)
(1.1383 -0.135197 -1.36047e-20)
(1.14032 -0.128811 0)
(1.14199 -0.122396 -1.78415e-21)
(1.14331 -0.115964 1.70694e-21)
(1.14428 -0.109526 -2.66638e-21)
(1.14491 -0.10309 1.01295e-20)
(1.14518 -0.0966646 -2.00909e-20)
(1.14511 -0.090255 1.32488e-20)
(1.14468 -0.0838655 1.30701e-20)
(1.14391 -0.0774986 -1.17547e-20)
(1.14279 -0.0711546 2.63776e-20)
(1.14131 -0.0648321 -2.49088e-20)
(1.13949 -0.0585283 -5.98992e-20)
(1.13732 -0.0522388 1.24444e-21)
(1.13481 -0.0459587 -2.17665e-20)
(1.13195 -0.0396825 0)
(1.12877 -0.0334045 0)
(1.12526 -0.0271192 -3.99132e-20)
(1.1214 -0.0208193 5.65485e-20)
(1.11717 -0.0144962 -3.7086e-20)
(1.1125 -0.00813804 0)
(1.10725 -0.00172653 3.44651e-20)
(1.10121 0.00475853 5.64616e-20)
(1.09411 0.0113431 -2.49312e-20)
(1.08556 0.0180548 1.84238e-21)
(1.07511 0.024898 2.40636e-20)
(1.06233 0.0318312 -3.90459e-21)
(1.04688 0.0387874 -3.75639e-20)
(1.02864 0.0455581 3.15773e-20)
(1.0082 0.0517581 1.13357e-20)
(0.985315 0.0565079 0)
(0.962951 0.0653403 0)
(0.89763 -0.255482 -7.83981e-21)
(0.905944 -0.257287 -3.38892e-20)
(0.914344 -0.258847 2.66822e-20)
(0.922798 -0.260127 0)
(0.931296 -0.261122 4.85518e-21)
(0.939835 -0.261835 1.42912e-20)
(0.948399 -0.262258 -1.12283e-20)
(0.956971 -0.262382 1.03337e-20)
(0.965536 -0.262204 -8.10247e-21)
(0.974084 -0.261722 0)
(0.982601 -0.260934 -9.46873e-22)
(0.991073 -0.259839 0)
(0.999486 -0.258436 4.60615e-21)
(1.00783 -0.256725 -1.00161e-20)
(1.01608 -0.254706 0)
(1.02422 -0.252381 0)
(1.03225 -0.249753 0)
(1.04014 -0.246824 -1.52511e-20)
(1.04788 -0.243598 2.04199e-20)
(1.05546 -0.240082 1.13757e-20)
(1.06286 -0.23628 0)
(1.07005 -0.2322 0)
(1.07704 -0.227849 0)
(1.0838 -0.223237 -4.47015e-20)
(1.09032 -0.218373 5.45545e-20)
(1.09658 -0.213269 -2.82555e-20)
(1.10258 -0.207934 -2.07563e-20)
(1.10829 -0.202383 2.2305e-20)
(1.1137 -0.196627 -2.23776e-20)
(1.11881 -0.190681 1.2598e-20)
(1.12361 -0.184558 -2.53992e-20)
(1.12807 -0.178274 1.18916e-20)
(1.13221 -0.171843 2.7005e-20)
(1.136 -0.16528 1.46174e-20)
(1.13945 -0.158588 -6.88418e-21)
(1.14254 -0.151838 6.98668e-21)
(1.14528 -0.145039 0)
(1.14766 -0.13819 -6.56129e-22)
(1.14968 -0.131306 3.73312e-21)
(1.15135 -0.124399 3.19043e-23)
(1.15265 -0.117482 -1.85785e-21)
(1.15361 -0.110566 4.59058e-21)
(1.15421 -0.10366 -7.50167e-21)
(1.15447 -0.0967699 -3.80949e-21)
(1.15439 -0.0899016 7.54122e-21)
(1.15397 -0.0830577 0)
(1.15323 -0.0762389 -2.81049e-20)
(1.15217 -0.0694437 -4.06379e-20)
(1.15079 -0.0626681 2.14501e-22)
(1.14911 -0.0559062 3.9056e-20)
(1.14714 -0.04915 0)
(1.14489 -0.0423892 0)
(1.14237 -0.035611 -2.52904e-20)
(1.13957 -0.0287997 4.72738e-20)
(1.13648 -0.0219361 1.01108e-21)
(1.13305 -0.0149951 -2.17446e-20)
(1.12922 -0.00794765 8.06233e-20)
(1.12485 -0.000756348 -3.88894e-20)
(1.11976 0.00662334 -3.38604e-20)
(1.1137 0.0142399 -7.02877e-20)
(1.10632 0.0221475 -3.14636e-22)
(1.09726 0.0303921 -1.58861e-21)
(1.08609 0.0389861 2.13947e-21)
(1.07252 0.0478841 4.97168e-20)
(1.05645 0.0569953 -3.02159e-20)
(1.03808 0.0660969 -2.43451e-20)
(1.01823 0.0749034 2.55654e-20)
(0.996648 0.0828412 2.43219e-20)
(0.975301 0.0952862 0)
(0.894005 -0.272034 2.93783e-20)
(0.902894 -0.273828 -1.55838e-20)
(0.911872 -0.275356 0)
(0.920904 -0.276583 5.12655e-21)
(0.92998 -0.277503 0)
(0.939096 -0.278119 -9.46701e-21)
(0.948235 -0.278421 7.23765e-21)
(0.957378 -0.278403 -6.80942e-21)
(0.966512 -0.278059 6.29311e-21)
(0.975623 -0.277388 7.14572e-23)
(0.984697 -0.276388 3.33117e-21)
(0.993719 -0.275058 -3.18754e-21)
(1.00267 -0.273396 0)
(1.01154 -0.271403 -1.23903e-20)
(1.02031 -0.269079 2.77106e-20)
(1.02896 -0.266426 -1.5315e-20)
(1.03747 -0.263447 0)
(1.04583 -0.260146 -2.92483e-20)
(1.05403 -0.256527 4.39238e-20)
(1.06204 -0.252597 -2.676e-20)
(1.06985 -0.248361 0)
(1.07743 -0.243829 0)
(1.08479 -0.239009 0)
(1.0919 -0.233912 9.15673e-21)
(1.09873 -0.228548 2.12027e-20)
(1.10529 -0.22293 -2.12274e-20)
(1.11156 -0.21707 1.09425e-20)
(1.11751 -0.210983 0)
(1.12315 -0.204684 2.58167e-20)
(1.12845 -0.198188 -3.84991e-20)
(1.13342 -0.19151 0)
(1.13803 -0.184669 2.85909e-20)
(1.14228 -0.17768 -1.41081e-20)
(1.14617 -0.170559 -1.45792e-20)
(1.1497 -0.163315 8.22898e-21)
(1.15284 -0.156024 0)
(1.15561 -0.148683 0)
(1.15801 -0.141301 7.69576e-21)
(1.16004 -0.133891 0)
(1.1617 -0.12647 -4.03475e-21)
(1.163 -0.119049 9.63135e-22)
(1.16394 -0.111641 4.01212e-21)
(1.16454 -0.104253 -1.50485e-22)
(1.16481 -0.0968939 7.89691e-21)
(1.16475 -0.0895672 1.62601e-20)
(1.16438 -0.0822749 8.02586e-21)