/*--------------------------------*- C++ -*----------------------------------*\
| =========                 |                                                 |
| \\      /  F ield         | OpenFOAM: The Open Source CFD Toolbox           |
|  \\    /   O peration     | Version:  2312                                  |
|   \\  /    A nd           | Website:  www.openfoam.com                      |
|    \\/     M anipulation  |                                                 |
\*---------------------------------------------------------------------------*/
FoamFile
{
    version     2.0;
    format      ascii;
    arch        "LSB;label=32;scalar=64";
    class       volScalarField;
    location    "1200";
    object      k;
}
// * * * * * * * * * * * * * * * * * * * * * * * * * * * * * * * * * * * * * //

dimensions      [0 2 -2 0 0 0 0];

internalField   nonuniform List<scalar> 
76025
(
4.68627e-06
4.68366e-06
4.68027e-06
4.67901e-06
4.67995e-06
4.6831e-06
4.68275e-06
4.68227e-06
4.68036e-06
4.67952e-06
4.67802e-06
4.67723e-06
4.67422e-06
4.67096e-06
4.67098e-06
4.66972e-06
4.67213e-06
4.67461e-06
4.6778e-06
4.68139e-06
4.68593e-06
4.69131e-06
4.69779e-06
4.70437e-06
4.71474e-06
4.72137e-06
4.73469e-06
4.74334e-06
4.75697e-06
4.7672e-06
4.78444e-06
4.79558e-06
4.81436e-06
4.82808e-06
4.84468e-06
4.86145e-06
4.87796e-06
4.90094e-06
4.92185e-06
4.94313e-06
4.96618e-06
4.98815e-06
5.01514e-06
5.03819e-06
5.0616e-06
5.08261e-06
5.10588e-06
5.12623e-06
5.14598e-06
5.16378e-06
5.18287e-06
5.20067e-06
5.22088e-06
5.24093e-06
5.26748e-06
5.29396e-06
5.32827e-06
5.36741e-06
5.41864e-06
5.47813e-06
5.5466e-06
5.60796e-06
5.72394e-06
5.79773e-06
5.94481e-06
6.08787e-06
6.2413e-06
6.43371e-06
6.59792e-06
4.72254e-06
4.72053e-06
4.71746e-06
4.71493e-06
4.71463e-06
4.71642e-06
4.71914e-06
4.72055e-06
4.72157e-06
4.72105e-06
4.72023e-06
4.71995e-06
4.71923e-06
4.72013e-06
4.7219e-06
4.72253e-06
4.72463e-06
4.72734e-06
4.73131e-06
4.73584e-06
4.74175e-06
4.74802e-06
4.75594e-06
4.76362e-06
4.77385e-06
4.78308e-06
4.79498e-06
4.80618e-06
4.81969e-06
4.83253e-06
4.84756e-06
4.86185e-06
4.87767e-06
4.89345e-06
4.90968e-06
4.92655e-06
4.9436e-06
4.9613e-06
4.97917e-06
4.99716e-06
5.0156e-06
5.03395e-06
5.05198e-06
5.06969e-06
5.08708e-06
5.10463e-06
5.12158e-06
5.13841e-06
5.15566e-06
5.17395e-06
5.19322e-06
5.21467e-06
5.23872e-06
5.2658e-06
5.2983e-06
5.33433e-06
5.38032e-06
5.42621e-06
5.48897e-06
5.54657e-06
5.62706e-06
5.70217e-06
5.81748e-06
5.90652e-06
6.06513e-06
6.19415e-06
6.38032e-06
6.56267e-06
6.83057e-06
4.75574e-06
4.75554e-06
4.75478e-06
4.75377e-06
4.75306e-06
4.7538e-06
4.75576e-06
4.75855e-06
4.76169e-06
4.76484e-06
4.76727e-06
4.76951e-06
4.77162e-06
4.77371e-06
4.77629e-06
4.7786e-06
4.78135e-06
4.78447e-06
4.78844e-06
4.79302e-06
4.79872e-06
4.80498e-06
4.81249e-06
4.82042e-06
4.82967e-06
4.83928e-06
4.84998e-06
4.8611e-06
4.87333e-06
4.88596e-06
4.89945e-06
4.91332e-06
4.92765e-06
4.9424e-06
4.95747e-06
4.97294e-06
4.98874e-06
5.00473e-06
5.02082e-06
5.03708e-06
5.05356e-06
5.07011e-06
5.08658e-06
5.10322e-06
5.12011e-06
5.13751e-06
5.15552e-06
5.17427e-06
5.1944e-06
5.21609e-06
5.23982e-06
5.26627e-06
5.2956e-06
5.32906e-06
5.36655e-06
5.40922e-06
5.45826e-06
5.5108e-06
5.5765e-06
5.63903e-06
5.72938e-06
5.80103e-06
5.93149e-06
6.0111e-06
6.19039e-06
6.29611e-06
6.52734e-06
6.66456e-06
7.01271e-06
4.78994e-06
4.79247e-06
4.7942e-06
4.79544e-06
4.79627e-06
4.79718e-06
4.79857e-06
4.80065e-06
4.80354e-06
4.80711e-06
4.81107e-06
4.81516e-06
4.8194e-06
4.82362e-06
4.82802e-06
4.8324e-06
4.8369e-06
4.8415e-06
4.84644e-06
4.8517e-06
4.85757e-06
4.86393e-06
4.87105e-06
4.87875e-06
4.88723e-06
4.8963e-06
4.90611e-06
4.91649e-06
4.92757e-06
4.93922e-06
4.95144e-06
4.96414e-06
4.97726e-06
4.99081e-06
5.00472e-06
5.01902e-06
5.03368e-06
5.04866e-06
5.06383e-06
5.07935e-06
5.09527e-06
5.11151e-06
5.12806e-06
5.14515e-06
5.16291e-06
5.18158e-06
5.20146e-06
5.22252e-06
5.24542e-06
5.27012e-06
5.29749e-06
5.32737e-06
5.36095e-06
5.39779e-06
5.43986e-06
5.48543e-06
5.53936e-06
5.59496e-06
5.66542e-06
5.73284e-06
5.82651e-06
5.90669e-06
6.039e-06
6.12671e-06
6.31327e-06
6.42547e-06
6.66363e-06
6.80912e-06
7.15581e-06
4.8288e-06
4.83225e-06
4.83578e-06
4.83923e-06
4.84236e-06
4.84511e-06
4.84766e-06
4.85021e-06
4.85305e-06
4.85634e-06
4.8602e-06
4.86455e-06
4.86936e-06
4.87451e-06
4.87997e-06
4.88564e-06
4.8915e-06
4.89749e-06
4.90366e-06
4.90999e-06
4.91661e-06
4.92351e-06
4.93083e-06
4.93855e-06
4.94677e-06
4.95548e-06
4.96471e-06
4.97445e-06
4.98472e-06
4.9955e-06
5.00678e-06
5.01854e-06
5.03075e-06
5.0434e-06
5.0565e-06
5.07005e-06
5.08406e-06
5.09851e-06
5.11332e-06
5.12868e-06
5.14469e-06
5.16126e-06
5.17845e-06
5.19648e-06
5.21552e-06
5.23578e-06
5.25761e-06
5.28091e-06
5.30639e-06
5.3338e-06
5.36431e-06
5.39717e-06
5.43435e-06
5.47428e-06
5.52045e-06
5.56921e-06
5.62812e-06
5.6868e-06
5.76429e-06
5.83383e-06
5.93724e-06
6.01956e-06
6.16024e-06
6.25256e-06
6.44617e-06
6.56159e-06
6.80778e-06
6.95603e-06
7.33323e-06
4.87437e-06
4.87747e-06
4.88123e-06
4.88558e-06
4.89022e-06
4.89488e-06
4.8994e-06
4.90373e-06
4.90793e-06
4.91213e-06
4.91648e-06
4.92109e-06
4.92605e-06
4.93138e-06
4.93707e-06
4.9431e-06
4.94943e-06
4.95599e-06
4.96279e-06
4.96977e-06
4.97696e-06
4.98437e-06
4.99202e-06
4.99996e-06
5.00822e-06
5.01683e-06
5.02583e-06
5.03523e-06
5.04506e-06
5.05533e-06
5.06605e-06
5.07723e-06
5.08889e-06
5.10103e-06
5.11368e-06
5.12689e-06
5.14065e-06
5.15498e-06
5.16984e-06
5.18544e-06
5.20191e-06
5.21918e-06
5.2373e-06
5.25653e-06
5.27702e-06
5.29899e-06
5.32279e-06
5.34822e-06
5.37617e-06
5.40599e-06
5.43948e-06
5.47489e-06
5.51577e-06
5.55831e-06
5.60921e-06
5.66075e-06
5.72542e-06
5.78737e-06
5.87154e-06
5.9445e-06
6.05579e-06
6.14112e-06
6.28924e-06
6.38616e-06
6.58726e-06
6.70656e-06
6.96135e-06
7.1141e-06
7.50603e-06
4.92614e-06
4.929e-06
4.93242e-06
4.9366e-06
4.94146e-06
4.94684e-06
4.95256e-06
4.95844e-06
4.96434e-06
4.9702e-06
4.976e-06
4.9818e-06
4.98765e-06
4.99363e-06
4.99977e-06
5.00612e-06
5.01269e-06
5.01948e-06
5.02649e-06
5.03369e-06
5.0411e-06
5.04871e-06
5.05653e-06
5.06458e-06
5.0729e-06
5.0815e-06
5.09042e-06
5.09968e-06
5.10933e-06
5.11938e-06
5.12987e-06
5.14083e-06
5.15229e-06
5.16429e-06
5.17687e-06
5.19009e-06
5.20399e-06
5.21858e-06
5.23384e-06
5.25002e-06
5.26725e-06
5.28547e-06
5.30473e-06
5.32532e-06
5.34735e-06
5.37106e-06
5.39676e-06
5.42425e-06
5.45453e-06
5.48666e-06
5.52308e-06
5.56099e-06
5.60581e-06
5.6509e-06
5.70725e-06
5.76113e-06
5.83283e-06
5.89704e-06
5.98903e-06
6.06452e-06
6.18384e-06
6.2722e-06
6.42771e-06
6.53003e-06
6.73883e-06
6.86214e-06
7.12575e-06
7.28411e-06
7.69561e-06
4.98284e-06
4.98614e-06
4.98965e-06
4.99365e-06
4.99824e-06
5.00344e-06
5.00923e-06
5.01552e-06
5.0222e-06
5.02912e-06
5.03618e-06
5.04329e-06
5.05042e-06
5.05755e-06
5.06469e-06
5.07186e-06
5.0791e-06
5.08641e-06
5.09383e-06
5.10136e-06
5.10903e-06
5.11686e-06
5.12485e-06
5.13305e-06
5.14147e-06
5.15015e-06
5.15912e-06
5.16842e-06
5.1781e-06
5.18818e-06
5.19872e-06
5.20976e-06
5.22134e-06
5.23354e-06
5.24637e-06
5.25995e-06
5.27431e-06
5.28947e-06
5.30542e-06
5.32244e-06
5.34063e-06
5.35997e-06
5.38049e-06
5.40251e-06
5.4261e-06
5.45155e-06
5.47915e-06
5.50866e-06
5.54132e-06
5.57579e-06
5.61537e-06
5.65592e-06
5.70514e-06
5.75289e-06
5.81534e-06
5.87126e-06
5.9508e-06
6.01646e-06
6.11667e-06
6.19471e-06
6.32073e-06
6.41441e-06
6.57469e-06
6.68573e-06
6.90058e-06
7.02781e-06
7.3018e-06
7.46821e-06
7.901e-06
5.0445e-06
5.04864e-06
5.05275e-06
5.05709e-06
5.06172e-06
5.06674e-06
5.07222e-06
5.07822e-06
5.08473e-06
5.0917e-06
5.09904e-06
5.10667e-06
5.11449e-06
5.12243e-06
5.13044e-06
5.13848e-06
5.14655e-06
5.15463e-06
5.16274e-06
5.1709e-06
5.17913e-06
5.18745e-06
5.19589e-06
5.20449e-06
5.21328e-06
5.22231e-06
5.23161e-06
5.24124e-06
5.25124e-06
5.26166e-06
5.27257e-06
5.28401e-06
5.29604e-06
5.30874e-06
5.32215e-06
5.33637e-06
5.35147e-06
5.36744e-06
5.3843e-06
5.40234e-06
5.42166e-06
5.44224e-06
5.46412e-06
5.48766e-06
5.51289e-06
5.5402e-06
5.56982e-06
5.60156e-06
5.63687e-06
5.67396e-06
5.71716e-06
5.7606e-06
5.81476e-06
5.86518e-06
5.93428e-06
5.99165e-06
6.07995e-06
6.14528e-06
6.25581e-06
6.33355e-06
6.46941e-06
6.56599e-06
6.73366e-06
6.85373e-06
7.07301e-06
7.20502e-06
7.49357e-06
7.67173e-06
8.10644e-06
5.11203e-06
5.11688e-06
5.1217e-06
5.12665e-06
5.13171e-06
5.13693e-06
5.14239e-06
5.14816e-06
5.15431e-06
5.16088e-06
5.16787e-06
5.17524e-06
5.18295e-06
5.19095e-06
5.19916e-06
5.20754e-06
5.21604e-06
5.22464e-06
5.23332e-06
5.24208e-06
5.25091e-06
5.25985e-06
5.26891e-06
5.27814e-06
5.28755e-06
5.29721e-06
5.30714e-06
5.31742e-06
5.32808e-06
5.33919e-06
5.3508e-06
5.36298e-06
5.37579e-06
5.38931e-06
5.4036e-06
5.41876e-06
5.43486e-06
5.4519e-06
5.46992e-06
5.48921e-06
5.5099e-06
5.53195e-06
5.55543e-06
5.58075e-06
5.60791e-06
5.63742e-06
5.66939e-06
5.7038e-06
5.74214e-06
5.78232e-06
5.82953e-06
5.87619e-06
5.93548e-06
5.98875e-06
6.06413e-06
6.12322e-06
6.21949e-06
6.28474e-06
6.40584e-06
6.48217e-06
6.63165e-06
6.72611e-06
6.91049e-06
7.03074e-06
7.25982e-06
7.39957e-06
7.70183e-06
7.89594e-06
8.35015e-06
5.18735e-06
5.19264e-06
5.19793e-06
5.20337e-06
5.2089e-06
5.2145e-06
5.2202e-06
5.22605e-06
5.2321e-06
5.23841e-06
5.24502e-06
5.25195e-06
5.25922e-06
5.26683e-06
5.27474e-06
5.28293e-06
5.29137e-06
5.30004e-06
5.30891e-06
5.31797e-06
5.32721e-06
5.33664e-06
5.34627e-06
5.35613e-06
5.36623e-06
5.37663e-06
5.38736e-06
5.39846e-06
5.40999e-06
5.42202e-06
5.43458e-06
5.44776e-06
5.46162e-06
5.47624e-06
5.49168e-06
5.50806e-06
5.52546e-06
5.54385e-06
5.56333e-06
5.58419e-06
5.60656e-06
5.63039e-06
5.65583e-06
5.68328e-06
5.71275e-06
5.74485e-06
5.77953e-06
5.81707e-06
5.8587e-06
5.9024e-06
5.95367e-06
6.00376e-06
6.06793e-06
6.12411e-06
6.20483e-06
6.26674e-06
6.36851e-06
6.43757e-06
6.56459e-06
6.64676e-06
6.80369e-06
6.90351e-06
7.10234e-06
7.22006e-06
7.46621e-06
7.61501e-06
7.92822e-06
8.15992e-06
8.58632e-06
5.2707e-06
5.27641e-06
5.28208e-06
5.2879e-06
5.29382e-06
5.2998e-06
5.30584e-06
5.31197e-06
5.31819e-06
5.32456e-06
5.3311e-06
5.33785e-06
5.34484e-06
5.35211e-06
5.35966e-06
5.36751e-06
5.37566e-06
5.38412e-06
5.39288e-06
5.40193e-06
5.41129e-06
5.42096e-06
5.43095e-06
5.44128e-06
5.45196e-06
5.46304e-06
5.47455e-06
5.48652e-06
5.49901e-06
5.51208e-06
5.52577e-06
5.54015e-06
5.55528e-06
5.57125e-06
5.58811e-06
5.60598e-06
5.62495e-06
5.64498e-06
5.66625e-06
5.68897e-06
5.71337e-06
5.73926e-06
5.76706e-06
5.79692e-06
5.82914e-06
5.8641e-06
5.90188e-06
5.94281e-06
5.98788e-06
6.03528e-06
6.09036e-06
6.14384e-06
6.21242e-06
6.27128e-06
6.35713e-06
6.42226e-06
6.52894e-06
6.60515e-06
6.73442e-06
6.83204e-06
6.98442e-06
7.11002e-06
7.29842e-06
7.43887e-06
7.68908e-06
7.84587e-06
8.20638e-06
8.43544e-06
9.20921e-06
5.36319e-06
5.36941e-06
5.37552e-06
5.38174e-06
5.38803e-06
5.39437e-06
5.40076e-06
5.40721e-06
5.41374e-06
5.42036e-06
5.4271e-06
5.43398e-06
5.44102e-06
5.44828e-06
5.45577e-06
5.46353e-06
5.47157e-06
5.47994e-06
5.48864e-06
5.49769e-06
5.50713e-06
5.51696e-06
5.52721e-06
5.5379e-06
5.54906e-06
5.56073e-06
5.57293e-06
5.58571e-06
5.59911e-06
5.6132e-06
5.62801e-06
5.64363e-06
5.66008e-06
5.67749e-06
5.69587e-06
5.71538e-06
5.73607e-06
5.75793e-06
5.78119e-06
5.80601e-06
5.83273e-06
5.86093e-06
5.89146e-06
5.92392e-06
5.95932e-06
5.99713e-06
6.03838e-06
6.08244e-06
6.13102e-06
6.18173e-06
6.24022e-06
6.29691e-06
6.36948e-06
6.43115e-06
6.52302e-06
6.59116e-06
6.70593e-06
6.78831e-06
6.92394e-06
7.03669e-06
7.18414e-06
7.34311e-06
7.50319e-06
7.69615e-06
7.92008e-06
8.11633e-06
8.52219e-06
8.83285e-06
9.61322e-06
5.46409e-06
5.47088e-06
5.47753e-06
5.48427e-06
5.49105e-06
5.49784e-06
5.50467e-06
5.51154e-06
5.51848e-06
5.52549e-06
5.5326e-06
5.53983e-06
5.54721e-06
5.55475e-06
5.5625e-06
5.57049e-06
5.57876e-06
5.58733e-06
5.59625e-06
5.60555e-06
5.61527e-06
5.62543e-06
5.63609e-06
5.64727e-06
5.65901e-06
5.67135e-06
5.68432e-06
5.69799e-06
5.71238e-06
5.72757e-06
5.74358e-06
5.76053e-06
5.7784e-06
5.79737e-06
5.81737e-06
5.83871e-06
5.86124e-06
5.88517e-06
5.91059e-06
5.93779e-06
5.96696e-06
5.9977e-06
6.03111e-06
6.06619e-06
6.10485e-06
6.14519e-06
6.18996e-06
6.23649e-06
6.2886e-06
6.34209e-06
6.40395e-06
6.46446e-06
6.54083e-06
6.60764e-06
6.70567e-06
6.77903e-06
6.90488e-06
6.99061e-06
7.14257e-06
7.25654e-06
7.41932e-06
7.5871e-06
7.73863e-06
7.98856e-06
8.15356e-06
8.52909e-06
8.81181e-06
9.39077e-06
9.84361e-06
5.57693e-06
5.58414e-06
5.59123e-06
5.59844e-06
5.6057e-06
5.61299e-06
5.62032e-06
5.62769e-06
5.63514e-06
5.64267e-06
5.6503e-06
5.65807e-06
5.66598e-06
5.67407e-06
5.68237e-06
5.6909e-06
5.6997e-06
5.70882e-06
5.71829e-06
5.72814e-06
5.73844e-06
5.74921e-06
5.76052e-06
5.77239e-06
5.78489e-06
5.79806e-06
5.81194e-06
5.82662e-06
5.84209e-06
5.85849e-06
5.87577e-06
5.89416e-06
5.91349e-06
5.93415e-06
5.95581e-06
5.97911e-06
6.00347e-06
6.02964e-06
6.05713e-06
6.08684e-06
6.11824e-06
6.15161e-06
6.18749e-06
6.22519e-06
6.26664e-06
6.30942e-06
6.35745e-06
6.40635e-06
6.4623e-06
6.51886e-06
6.585e-06
6.65081e-06
6.73139e-06
6.80714e-06
6.90946e-06
6.99411e-06
7.12776e-06
7.22002e-06
7.39166e-06
7.49294e-06
7.70125e-06
7.82076e-06
8.06067e-06
8.24718e-06
8.52181e-06
8.90747e-06
9.25557e-06
9.74982e-06
1.01919e-05
5.70197e-06
5.70954e-06
5.71703e-06
5.72469e-06
5.73247e-06
5.74032e-06
5.74826e-06
5.75629e-06
5.76442e-06
5.77268e-06
5.78109e-06
5.78966e-06
5.79841e-06
5.80736e-06
5.81656e-06
5.82601e-06
5.83576e-06
5.84583e-06
5.85627e-06
5.8671e-06
5.87839e-06
5.89016e-06
5.90248e-06
5.91539e-06
5.92894e-06
5.9432e-06
5.95821e-06
5.97408e-06
5.99078e-06
6.00852e-06
6.02714e-06
6.04705e-06
6.06784e-06
6.09025e-06
6.11349e-06
6.13879e-06
6.1648e-06
6.19323e-06
6.2225e-06
6.25474e-06
6.2879e-06
6.32403e-06
6.36183e-06
6.40255e-06
6.44626e-06
6.49229e-06
6.54337e-06
6.59585e-06
6.65621e-06
6.71714e-06
6.78907e-06
6.86135e-06
6.94778e-06
7.03446e-06
7.13997e-06
7.24246e-06
7.37444e-06
7.4902e-06
7.65532e-06
7.78126e-06
7.98335e-06
8.12608e-06
8.38478e-06
8.60659e-06
8.97976e-06
9.22601e-06
9.69262e-06
9.93221e-06
1.09056e-05
5.84539e-06
5.85312e-06
5.86081e-06
5.86873e-06
5.87684e-06
5.88509e-06
5.89349e-06
5.90206e-06
5.91082e-06
5.91976e-06
5.92893e-06
5.93832e-06
5.94796e-06
5.95788e-06
5.96809e-06
5.97862e-06
5.98949e-06
6.00074e-06
6.01239e-06
6.02447e-06
6.03703e-06
6.0501e-06
6.06373e-06
6.07797e-06
6.09286e-06
6.1085e-06
6.12487e-06
6.14217e-06
6.16027e-06
6.17953e-06
6.1996e-06
6.22116e-06
6.24347e-06
6.2677e-06
6.29253e-06
6.31985e-06
6.3475e-06
6.37822e-06
6.40928e-06
6.44412e-06
6.4791e-06
6.5183e-06
6.55818e-06
6.60265e-06
6.64886e-06
6.69943e-06
6.75387e-06
6.81174e-06
6.87705e-06
6.94414e-06
7.02299e-06
7.10273e-06
7.19697e-06
7.29471e-06
7.40564e-06
7.52584e-06
7.6563e-06
7.79683e-06
7.94943e-06
8.11612e-06
8.28583e-06
8.52126e-06
8.78242e-06
9.05865e-06
9.26961e-06
9.4591e-06
9.77078e-06
1.0067e-05
1.02779e-05
6.00728e-06
6.01542e-06
6.02353e-06
6.03192e-06
6.04054e-06
6.04936e-06
6.0584e-06
6.06767e-06
6.07719e-06
6.08698e-06
6.09707e-06
6.10747e-06
6.1182e-06
6.12927e-06
6.14071e-06
6.15254e-06
6.16479e-06
6.17746e-06
6.1906e-06
6.20422e-06
6.21835e-06
6.23303e-06
6.24829e-06
6.26418e-06
6.28073e-06
6.29804e-06
6.31608e-06
6.33508e-06
6.35484e-06
6.37584e-06
6.3976e-06
6.42096e-06
6.445e-06
6.47113e-06
6.49783e-06
6.52713e-06
6.55685e-06
6.58974e-06
6.62326e-06
6.66046e-06
6.69829e-06
6.74034e-06
6.78366e-06
6.83176e-06
6.88205e-06
6.93733e-06
6.99683e-06
7.06054e-06
7.13257e-06
7.20618e-06
7.29427e-06
7.38126e-06
7.48615e-06
7.59496e-06
7.71164e-06
7.8519e-06
7.97655e-06
8.14283e-06
8.29659e-06
8.48022e-06
8.71372e-06
8.95629e-06
9.07338e-06
9.20603e-06
9.36832e-06
9.36859e-06
9.40811e-06
9.39159e-06
9.90684e-06
6.19848e-06
6.20696e-06
6.21544e-06
6.22424e-06
6.23332e-06
6.24266e-06
6.25228e-06
6.26219e-06
6.27242e-06
6.283e-06
6.29394e-06
6.30527e-06
6.317e-06
6.32916e-06
6.34176e-06
6.35483e-06
6.36838e-06
6.38244e-06
6.39704e-06
6.41219e-06
6.42792e-06
6.44427e-06
6.46124e-06
6.47892e-06
6.49728e-06
6.51648e-06
6.53641e-06
6.55736e-06
6.5791e-06
6.60211e-06
6.62595e-06
6.65137e-06
6.67769e-06
6.70589e-06
6.73521e-06
6.76651e-06
6.79937e-06
6.83429e-06
6.87171e-06
6.91087e-06
6.95349e-06
6.99789e-06
7.04692e-06
7.09806e-06
7.15496e-06
7.21421e-06
7.28175e-06
7.35001e-06
7.43293e-06
7.51015e-06
7.61483e-06
7.70098e-06
7.83192e-06
7.93061e-06
8.08265e-06
8.204e-06
8.36744e-06
8.52446e-06
8.73397e-06
8.92312e-06
9.05695e-06
9.12691e-06
9.12527e-06
9.15543e-06
9.21424e-06
9.25651e-06
9.60728e-06
9.57128e-06
1.01967e-05
6.41858e-06
6.42793e-06
6.43729e-06
6.44703e-06
6.45712e-06
6.46752e-06
6.47827e-06
6.48939e-06
6.5009e-06
6.51282e-06
6.52519e-06
6.538e-06
6.55128e-06
6.56505e-06
6.57932e-06
6.5941e-06
6.60943e-06
6.62531e-06
6.64176e-06
6.65881e-06
6.67647e-06
6.6948e-06
6.71377e-06
6.7335e-06
6.75393e-06
6.77523e-06
6.7973e-06
6.8204e-06
6.84439e-06
6.86955e-06
6.89583e-06
6.92335e-06
6.95243e-06
6.98264e-06
7.0152e-06
7.04835e-06
7.08522e-06
7.12196e-06
7.16427e-06
7.20529e-06
7.25363e-06
7.3007e-06
7.3559e-06
7.41146e-06
7.47449e-06
7.54082e-06
7.61473e-06
7.69278e-06
7.78289e-06
7.87306e-06
7.9836e-06
8.08796e-06
8.21873e-06
8.33952e-06
8.49014e-06
8.63205e-06
8.82392e-06
9.00361e-06
9.09696e-06
9.16014e-06
9.15513e-06
9.05441e-06
8.9798e-06
8.88921e-06
8.92427e-06
9.12941e-06
9.37122e-06
9.08404e-06
9.05876e-06
6.68732e-06
6.69711e-06
6.70698e-06
6.71731e-06
6.72808e-06
6.73925e-06
6.75084e-06
6.76288e-06
6.7754e-06
6.78842e-06
6.80196e-06
6.81605e-06
6.83069e-06
6.84591e-06
6.86171e-06
6.87812e-06
6.89514e-06
6.9128e-06
6.9311e-06
6.95008e-06
6.96972e-06
6.99009e-06
7.01119e-06
7.03307e-06
7.05576e-06
7.0793e-06
7.10382e-06
7.12924e-06
7.15592e-06
7.18346e-06
7.21276e-06
7.24272e-06
7.27526e-06
7.30802e-06
7.34452e-06
7.38045e-06
7.42196e-06
7.46189e-06
7.50946e-06
7.55447e-06
7.60871e-06
7.6615e-06
7.72246e-06
7.78668e-06
7.85444e-06
7.93357e-06
8.01131e-06
8.1051e-06
8.19966e-06
8.30656e-06
8.41824e-06
8.54412e-06
8.66932e-06
8.81286e-06
8.99506e-06
9.13851e-06
9.22654e-06
9.2678e-06
9.23845e-06
9.14289e-06
8.97323e-06
8.61106e-06
8.57024e-06
8.72809e-06
8.43996e-06
8.27855e-06
8.10398e-06
8.09511e-06
8.01816e-06
7.00653e-06
7.01787e-06
7.02933e-06
7.04135e-06
7.05392e-06
7.06698e-06
7.08057e-06
7.0947e-06
7.10938e-06
7.12464e-06
7.14048e-06
7.15691e-06
7.17394e-06
7.19158e-06
7.20984e-06
7.22872e-06
7.24825e-06
7.26842e-06
7.28929e-06
7.31079e-06
7.33306e-06
7.35595e-06
7.37975e-06
7.40412e-06
7.42962e-06
7.45562e-06
7.48307e-06
7.5109e-06
7.54071e-06
7.57066e-06
7.60332e-06
7.63585e-06
7.67197e-06
7.7077e-06
7.74792e-06
7.78775e-06
7.83316e-06
7.87821e-06
7.92979e-06
7.9812e-06
8.04034e-06
8.10057e-06
8.16837e-06
8.24035e-06
8.31805e-06
8.40418e-06
8.49576e-06
8.59134e-06
8.70508e-06
8.80939e-06
8.93618e-06
9.0748e-06
9.23076e-06
9.33169e-06
9.41603e-06
9.41525e-06
9.38143e-06
9.24594e-06
9.01617e-06
8.72682e-06
8.25358e-06
7.81738e-06
7.63256e-06
7.44292e-06
7.32216e-06
7.16983e-06
7.12607e-06
7.67749e-06
7.36928e-06
7.40937e-06
7.42119e-06
7.43346e-06
7.4463e-06
7.45985e-06
7.47399e-06
7.48871e-06
7.50404e-06
7.52001e-06
7.53667e-06
7.55402e-06
7.57208e-06
7.59085e-06
7.61033e-06
7.63056e-06
7.65146e-06
7.67318e-06
7.69551e-06
7.7188e-06
7.74258e-06
7.76756e-06
7.79283e-06
7.81967e-06
7.84657e-06
7.87551e-06
7.90421e-06
7.9356e-06
7.96638e-06
8.00065e-06
8.03392e-06
8.07163e-06
8.10801e-06
8.1497e-06
8.19024e-06
8.23643e-06
8.28263e-06
8.33419e-06
8.38747e-06
8.44571e-06
8.50739e-06
8.57397e-06
8.64516e-06
8.72163e-06
8.8021e-06
8.88894e-06
8.98127e-06
9.08058e-06
9.17119e-06
9.31537e-06
9.41828e-06
9.55197e-06
9.58507e-06
9.6148e-06
9.57997e-06
9.53041e-06
9.33011e-06
9.14882e-06
8.67726e-06
8.33634e-06
7.67935e-06
7.21245e-06
6.93326e-06
6.58497e-06
6.58322e-06
6.04242e-06
6.24795e-06
6.38541e-06
6.38622e-06
6.71439e-06
7.9138e-06
7.92845e-06
7.94339e-06
7.95914e-06
7.97566e-06
7.99291e-06
8.01088e-06
8.02959e-06
8.04907e-06
8.06929e-06
8.0903e-06
8.11204e-06
8.13459e-06
8.1578e-06
8.1819e-06
8.20654e-06
8.23223e-06
8.25823e-06
8.2856e-06
8.31293e-06
8.34211e-06
8.37081e-06
8.402e-06
8.43223e-06
8.46569e-06
8.49779e-06
8.53386e-06
8.56834e-06
8.60752e-06
8.64495e-06
8.68791e-06
8.72907e-06
8.77653e-06
8.82267e-06
8.875e-06
8.92796e-06
8.98531e-06
9.04567e-06
9.10896e-06
9.17694e-06
9.24662e-06
9.32293e-06
9.39813e-06
9.4735e-06
9.56088e-06
9.66603e-06
9.76126e-06
9.82519e-06
9.89761e-06
9.87555e-06
9.85861e-06
9.75975e-06
9.65475e-06
9.37565e-06
9.1502e-06
8.64365e-06
8.25475e-06
7.51417e-06
7.04748e-06
6.39051e-06
5.76211e-06
5.59162e-06
5.60075e-06
5.56156e-06
5.10469e-06
5.08132e-06
5.19957e-06
5.35892e-06
5.8973e-06
8.58997e-06
8.60476e-06
8.62023e-06
8.63651e-06
8.65402e-06
8.67223e-06
8.69144e-06
8.71154e-06
8.73252e-06
8.75437e-06
8.77718e-06
8.80087e-06
8.82561e-06
8.85117e-06
8.87793e-06
8.90533e-06
8.93423e-06
8.96348e-06
8.99471e-06
9.02583e-06
9.05961e-06
9.09274e-06
9.12925e-06
9.16473e-06
9.20414e-06
9.24251e-06
9.28494e-06
9.3269e-06
9.37265e-06
9.41865e-06
9.46818e-06
9.51815e-06
9.57186e-06
9.62552e-06
9.68263e-06
9.74023e-06
9.8e-06
9.86171e-06
9.92159e-06
9.98721e-06
1.0047e-05
1.01152e-05
1.01626e-05
1.02031e-05
1.02424e-05
1.02779e-05
1.02643e-05
1.01719e-05
1.00735e-05
9.82363e-06
9.63219e-06
9.23555e-06
8.92553e-06
8.44248e-06
8.01595e-06
7.48773e-06
6.91771e-06
6.39876e-06
5.95654e-06
5.31403e-06
4.92351e-06
4.72117e-06
4.5744e-06
4.17619e-06
4.11492e-06
4.01579e-06
4.13479e-06
4.75325e-06
5.63634e-06
9.50311e-06
9.52508e-06
9.54789e-06
9.57231e-06
9.5978e-06
9.62433e-06
9.65165e-06
9.67998e-06
9.70915e-06
9.73942e-06
9.77055e-06
9.8028e-06
9.83589e-06
9.86994e-06
9.90485e-06
9.94038e-06
9.97686e-06
1.00135e-05
1.00513e-05
1.00888e-05
1.01276e-05
1.01657e-05
1.02053e-05
1.02437e-05
1.02834e-05
1.03219e-05
1.03607e-05
1.03992e-05
1.04356e-05
1.04722e-05
1.05047e-05
1.05378e-05
1.0566e-05
1.05957e-05
1.06176e-05
1.06451e-05
1.06578e-05
1.06784e-05
1.06946e-05
1.07144e-05
1.07726e-05
1.07919e-05
1.07474e-05
1.06667e-05
1.05285e-05
1.03739e-05
1.01665e-05
9.93114e-06
9.64932e-06
9.34942e-06
9.00987e-06
8.64567e-06
8.21973e-06
7.73314e-06
7.17972e-06
6.64635e-06
6.16148e-06
5.6796e-06
5.23103e-06
4.74651e-06
4.35484e-06
4.1276e-06
3.95585e-06
3.79821e-06
3.69131e-06
3.46883e-06
3.43758e-06
3.19525e-06
3.22014e-06
1.11358e-05
1.11443e-05
1.11284e-05
1.11094e-05
1.10992e-05
1.10952e-05
1.10967e-05
1.11001e-05
1.11062e-05
1.11124e-05
1.11198e-05
1.11259e-05
1.11328e-05
1.11383e-05
1.11442e-05
1.11501e-05
1.11562e-05
1.11627e-05
1.11786e-05
1.11837e-05
1.12113e-05
1.12042e-05
1.12035e-05
1.11723e-05
1.11931e-05
1.11966e-05
1.11999e-05
1.12001e-05
1.11628e-05
1.11086e-05
1.1126e-05
1.1125e-05
1.11169e-05
1.11223e-05
1.11182e-05
1.11434e-05
1.11509e-05
1.11545e-05
1.11544e-05
1.11511e-05
1.11436e-05
1.11329e-05
1.11142e-05
1.10903e-05
1.10318e-05
1.08771e-05
1.06714e-05
1.03823e-05
1.0101e-05
9.75798e-06
9.38887e-06
8.86288e-06
8.43587e-06
7.79591e-06
7.05929e-06
6.2872e-06
5.5202e-06
4.78419e-06
4.06752e-06
3.34897e-06
2.67772e-06
2.00884e-06
1.55142e-06
1.23104e-06
1.04305e-06
8.99309e-07
8.38421e-07
7.63711e-07
7.78488e-07
1.09275e-05
1.09217e-05
1.09191e-05
1.09108e-05
1.08196e-05
1.08416e-05
1.07941e-05
1.07825e-05
1.07729e-05
1.08026e-05
1.08127e-05
1.08616e-05
1.08818e-05
1.08908e-05
1.08909e-05
1.08036e-05
1.07454e-05
1.07258e-05
1.07316e-05
1.07367e-05
1.07677e-05
1.07548e-05
1.08222e-05
1.08106e-05
1.08267e-05
1.08857e-05
1.09065e-05
1.08647e-05
1.08963e-05
1.10653e-05
1.13496e-05
1.17372e-05
1.22521e-05
1.28575e-05
1.34978e-05
1.41689e-05
1.48428e-05
1.55215e-05
1.61877e-05
1.68481e-05
1.7411e-05
1.79756e-05
1.82709e-05
1.86555e-05
1.92702e-05
1.93878e-05
1.89375e-05
1.80668e-05
1.70166e-05
1.57714e-05
1.43275e-05
1.26196e-05
1.09088e-05
8.92922e-06
6.90907e-06
5.02563e-06
3.42793e-06
2.2126e-06
1.42432e-06
9.44564e-07
6.63069e-07
4.97061e-07
4.0372e-07
3.46955e-07
2.90868e-07
2.44722e-07
2.16911e-07
2.09555e-07
2.55209e-07
2.9871e-05
3.07701e-05
3.16934e-05
3.26414e-05
3.36075e-05
3.45959e-05
3.55994e-05
3.66189e-05
3.76506e-05
3.86931e-05
3.97443e-05
4.0801e-05
4.18623e-05
4.2924e-05
4.39859e-05
4.50436e-05
4.6098e-05
4.71421e-05
4.81843e-05
4.92005e-05
5.02272e-05
5.11922e-05
5.22118e-05
5.30917e-05
5.41132e-05
5.49069e-05
5.58493e-05
5.66976e-05
5.75349e-05
5.81396e-05
5.93305e-05
5.95286e-05
6.12785e-05
6.18569e-05
6.1254e-05
6.01325e-05
5.88605e-05
5.74305e-05
5.58234e-05
5.40163e-05
5.19829e-05
4.97049e-05
4.71593e-05
4.43396e-05
4.1252e-05
3.79083e-05
3.43321e-05
3.05673e-05
2.66713e-05
2.27219e-05
1.87993e-05
1.49663e-05
1.14208e-05
7.87507e-06
4.60438e-06
2.13432e-06
7.33734e-07
2.16749e-07
1.46595e-07
2.0151e-07
2.73792e-07
3.12178e-07
3.22173e-07
3.05356e-07
2.71186e-07
2.43394e-07
2.19532e-07
1.87662e-07
1.37406e-07
4.82577e-06
4.82515e-06
4.82381e-06
4.82219e-06
4.81946e-06
4.81652e-06
4.81421e-06
4.81283e-06
4.81241e-06
4.81254e-06
4.81214e-06
4.81274e-06
4.81326e-06
4.81255e-06
4.80652e-06
4.80241e-06
4.80163e-06
4.80064e-06
4.79561e-06
4.78992e-06
4.79246e-06
4.79469e-06
4.78807e-06
4.78329e-06
4.77697e-06
4.7703e-06
4.77053e-06
4.7709e-06
4.77227e-06
4.76709e-06
4.76413e-06
4.76189e-06
4.76116e-06
4.75588e-06
4.75246e-06
4.74821e-06
4.74636e-06
4.74238e-06
4.73723e-06
4.73343e-06
4.72851e-06
4.72784e-06
4.72537e-06
4.72061e-06
4.71842e-06
4.71305e-06
4.70994e-06
4.70803e-06
4.70436e-06
4.69797e-06
4.69365e-06
4.6917e-06
4.69245e-06
4.69499e-06
4.69815e-06
4.69787e-06
4.69629e-06
4.69282e-06
4.68933e-06
4.8499e-06
4.84767e-06
4.84573e-06
4.84429e-06
4.84218e-06
4.84132e-06
4.84087e-06
4.84101e-06
4.84133e-06
4.84159e-06
4.84128e-06
4.84051e-06
4.83823e-06
4.83368e-06
4.82873e-06
4.82712e-06
4.82721e-06
4.82306e-06
4.81719e-06
4.81579e-06
4.81798e-06
4.81802e-06
4.80971e-06
4.80525e-06
4.79774e-06
4.79283e-06
4.79321e-06
4.794e-06
4.7943e-06
4.78901e-06
4.78632e-06
4.78418e-06
4.78303e-06
4.77862e-06
4.77518e-06
4.77101e-06
4.76878e-06
4.76577e-06
4.76129e-06
4.75683e-06
4.75177e-06
4.75055e-06
4.74908e-06
4.74593e-06
4.74324e-06
4.73961e-06
4.7362e-06
4.73464e-06
4.73273e-06
4.72914e-06
4.72414e-06
4.72012e-06
4.71701e-06
4.71708e-06
4.71887e-06
4.72183e-06
4.72397e-06
4.72412e-06
4.72373e-06
4.87791e-06
4.87718e-06
4.87497e-06
4.87392e-06
4.87321e-06
4.87285e-06
4.87246e-06
4.8725e-06
4.87227e-06
4.87144e-06
4.86962e-06
4.86723e-06
4.86301e-06
4.85883e-06
4.85656e-06
4.8562e-06
4.85374e-06
4.84734e-06
4.84464e-06
4.845e-06
4.84594e-06
4.84354e-06
4.83401e-06
4.82987e-06
4.82171e-06
4.8185e-06
4.81892e-06
4.81984e-06
4.81923e-06
4.81392e-06
4.81141e-06
4.80916e-06
4.80767e-06
4.80398e-06
4.80057e-06
4.7965e-06
4.79408e-06
4.79148e-06
4.78796e-06
4.78371e-06
4.77816e-06
4.7761e-06
4.77496e-06
4.77328e-06
4.77087e-06
4.76786e-06
4.76476e-06
4.76318e-06
4.7621e-06
4.76049e-06
4.75774e-06
4.75435e-06
4.75047e-06
4.74726e-06
4.74674e-06
4.74768e-06
4.75026e-06
4.75231e-06
4.75436e-06
4.91018e-06
4.9086e-06
4.90796e-06
4.90724e-06
4.90706e-06
4.9067e-06
4.90588e-06
4.90482e-06
4.90324e-06
4.90104e-06
4.89839e-06
4.89555e-06
4.89172e-06
4.88941e-06
4.88835e-06
4.88642e-06
4.88144e-06
4.87673e-06
4.87596e-06
4.87641e-06
4.8764e-06
4.87015e-06
4.86095e-06
4.85663e-06
4.84888e-06
4.84686e-06
4.84732e-06
4.84815e-06
4.8467e-06
4.84146e-06
4.83903e-06
4.83662e-06
4.83496e-06
4.83183e-06
4.82852e-06
4.82462e-06
4.82206e-06
4.81964e-06
4.81683e-06
4.81332e-06
4.80783e-06
4.80473e-06
4.8035e-06
4.80254e-06
4.80116e-06
4.7992e-06
4.79645e-06
4.79475e-06
4.79399e-06
4.79345e-06
4.79247e-06
4.79074e-06
4.78855e-06
4.78494e-06
4.78231e-06
4.78184e-06
4.7827e-06
4.78453e-06
4.78679e-06
4.94816e-06
4.94723e-06
4.94639e-06
4.94558e-06
4.94466e-06
4.9434e-06
4.94155e-06
4.93921e-06
4.93649e-06
4.93368e-06
4.93104e-06
4.92856e-06
4.92579e-06
4.92437e-06
4.92242e-06
4.91834e-06
4.91294e-06
4.91094e-06
4.91116e-06
4.91142e-06
4.90778e-06
4.89966e-06
4.89132e-06
4.88664e-06
4.87993e-06
4.87887e-06
4.87929e-06
4.87978e-06
4.87758e-06
4.87244e-06
4.86998e-06
4.86741e-06
4.86559e-06
4.86286e-06
4.85972e-06
4.85605e-06
4.85345e-06
4.85118e-06
4.84887e-06
4.84614e-06
4.8419e-06
4.83748e-06
4.83562e-06
4.83494e-06
4.83433e-06
4.83339e-06
4.83182e-06
4.83012e-06
4.82903e-06
4.82908e-06
4.82906e-06
4.8287e-06
4.82787e-06
4.82603e-06
4.82365e-06
4.82292e-06
4.823e-06
4.82409e-06
4.82579e-06
4.99058e-06
4.98905e-06
4.9874e-06
4.98577e-06
4.98364e-06
4.98133e-06
4.97842e-06
4.97543e-06
4.97258e-06
4.97021e-06
4.96822e-06
4.96627e-06
4.96389e-06
4.96165e-06
4.9577e-06
4.95277e-06
4.94981e-06
4.94963e-06
4.94968e-06
4.94715e-06
4.94055e-06
4.93216e-06
4.9246e-06
4.91976e-06
4.9143e-06
4.91396e-06
4.91409e-06
4.91425e-06
4.91131e-06
4.90637e-06
4.90386e-06
4.90122e-06
4.89933e-06
4.89693e-06
4.89404e-06
4.89067e-06
4.888e-06
4.88582e-06
4.88387e-06
4.88182e-06
4.87894e-06
4.87491e-06
4.87205e-06
4.87089e-06
4.87072e-06
4.87058e-06
4.87006e-06
4.86952e-06
4.86912e-06
4.86861e-06
4.86852e-06
4.86889e-06
4.8692e-06
4.86917e-06
4.86884e-06
4.86887e-06
4.86939e-06
4.8704e-06
4.87184e-06
5.03269e-06
5.03083e-06
5.02895e-06
5.02696e-06
5.02459e-06
5.02223e-06
5.01955e-06
5.01718e-06
5.01511e-06
5.01322e-06
5.01123e-06
5.0086e-06
5.00518e-06
5.00141e-06
4.99702e-06
4.99406e-06
4.99349e-06
4.9935e-06
4.99107e-06
4.98559e-06
4.97766e-06
4.96943e-06
4.96263e-06
4.95788e-06
4.95356e-06
4.95365e-06
4.95369e-06
4.95317e-06
4.9496e-06
4.94483e-06
4.94222e-06
4.93946e-06
4.93742e-06
4.93521e-06
4.93258e-06
4.92962e-06
4.927e-06
4.92495e-06
4.92335e-06
4.92184e-06
4.91993e-06
4.91717e-06
4.91412e-06
4.91224e-06
4.91187e-06
4.91168e-06
4.91227e-06
4.9119e-06
4.91183e-06
4.91197e-06
4.91243e-06
4.91342e-06
4.91466e-06
4.91596e-06
4.91724e-06
4.91856e-06
4.9201e-06
4.92171e-06
4.92351e-06
5.07947e-06
5.07744e-06
5.07559e-06
5.07373e-06
5.07162e-06
5.06955e-06
5.0672e-06
5.06506e-06
5.06267e-06
5.06002e-06
5.05687e-06
5.05311e-06
5.04915e-06
5.04568e-06
5.04313e-06
5.04215e-06
5.04152e-06
5.03899e-06
5.03371e-06
5.02659e-06
5.01792e-06
5.01036e-06
5.00434e-06
4.99995e-06
4.99658e-06
4.99687e-06
4.99653e-06
4.99527e-06
4.9913e-06
4.98679e-06
4.98411e-06