/*--------------------------------*- C++ -*----------------------------------*\
| =========                 |                                                 |
| \\      /  F ield         | OpenFOAM: The Open Source CFD Toolbox           |
|  \\    /   O peration     | Version:  2312                                  |
|   \\  /    A nd           | Website:  www.openfoam.com                      |
|    \\/     M anipulation  |                                                 |
\*---------------------------------------------------------------------------*/
FoamFile
{
    version     2.0;
    format      ascii;
    arch        "LSB;label=32;scalar=64";
    class       volScalarField;
    location    "1200";
    object      nut;
}
// * * * * * * * * * * * * * * * * * * * * * * * * * * * * * * * * * * * * * //

dimensions      [0 2 -1 0 0 0 0];

internalField   nonuniform List<scalar> 
76025
(
7.0869e-05
7.2135e-05
7.31156e-05
7.21622e-05
7.14518e-05
6.84879e-05
7.02092e-05
6.99829e-05
7.2127e-05
7.14098e-05
7.0473e-05
7.01469e-05
7.11705e-05
7.11606e-05
6.91356e-05
7.0534e-05
6.7715e-05
6.81786e-05
6.72665e-05
6.76116e-05
6.56572e-05
6.4971e-05
6.38214e-05
6.20754e-05
6.17386e-05
6.04889e-05
5.72433e-05
5.88594e-05
5.60877e-05
5.49748e-05
5.55803e-05
5.47194e-05
5.21309e-05
5.33292e-05
5.19242e-05
5.24019e-05
4.98879e-05
4.81028e-05
4.88875e-05
4.80134e-05
4.73122e-05
4.52893e-05
4.37371e-05
4.42914e-05
4.36496e-05
4.29904e-05
4.20456e-05
4.24038e-05
4.26654e-05
4.30068e-05
4.31402e-05
4.33776e-05
4.39485e-05
4.40383e-05
4.40074e-05
4.45197e-05
4.42474e-05
4.35276e-05
4.27234e-05
4.28523e-05
4.23272e-05
4.01152e-05
4.07632e-05
4.02311e-05
3.94323e-05
3.94648e-05
4.01546e-05
3.97282e-05
3.99563e-05
6.60258e-05
6.77e-05
6.83332e-05
6.84545e-05
6.78727e-05
6.65649e-05
6.61525e-05
6.54729e-05
6.59151e-05
6.63499e-05
6.62701e-05
6.59335e-05
6.58679e-05
6.57618e-05
6.56219e-05
6.56681e-05
6.49261e-05
6.46956e-05
6.41366e-05
6.37884e-05
6.31157e-05
6.2734e-05
6.201e-05
6.10374e-05
6.0259e-05
5.95344e-05
5.85866e-05
5.78144e-05
5.68466e-05
5.59873e-05
5.53872e-05
5.469e-05
5.39546e-05
5.33693e-05
5.26418e-05
5.19589e-05
5.14539e-05
5.12385e-05
5.09682e-05
5.04852e-05
4.99622e-05
4.98771e-05
5.00137e-05
4.98911e-05
4.96124e-05
4.95362e-05
4.97574e-05
4.96384e-05
4.93366e-05
4.93204e-05
4.93223e-05
4.92298e-05
4.91628e-05
4.90454e-05
4.83141e-05
4.76724e-05
4.71739e-05
4.63404e-05
4.58216e-05
4.54194e-05
4.46165e-05
4.36519e-05
4.31758e-05
4.24395e-05
4.18789e-05
4.11391e-05
4.19668e-05
4.17974e-05
4.38005e-05
6.08299e-05
6.21462e-05
6.26031e-05
6.29257e-05
6.30599e-05
6.28923e-05
6.25107e-05
6.19966e-05
6.16408e-05
6.15551e-05
6.15627e-05
6.15347e-05
6.14901e-05
6.13918e-05
6.13224e-05
6.12712e-05
6.11707e-05
6.10626e-05
6.08901e-05
6.06522e-05
6.03915e-05
6.01198e-05
5.9728e-05
5.92164e-05
5.87244e-05
5.82744e-05
5.78304e-05
5.71997e-05
5.6565e-05
5.59659e-05
5.54241e-05
5.49507e-05
5.44906e-05
5.39613e-05
5.34546e-05
5.29435e-05
5.25437e-05
5.22635e-05
5.1991e-05
5.16757e-05
5.13936e-05
5.1286e-05
5.11773e-05
5.09542e-05
5.07053e-05
5.04996e-05
5.03011e-05
4.99582e-05
4.95759e-05
4.92762e-05
4.89504e-05
4.85404e-05
4.80783e-05
4.75257e-05
4.67844e-05
4.6065e-05
4.53643e-05
4.45659e-05
4.38414e-05
4.31319e-05
4.25421e-05
4.15839e-05
4.10745e-05
4.01945e-05
4.00251e-05
3.93257e-05
4.00468e-05
3.95299e-05
4.25566e-05
5.71515e-05
5.77392e-05
5.76959e-05
5.77095e-05
5.78711e-05
5.80273e-05
5.80497e-05
5.79385e-05
5.77185e-05
5.74958e-05
5.73347e-05
5.72415e-05
5.71945e-05
5.71532e-05
5.71168e-05
5.70896e-05
5.70949e-05
5.70998e-05
5.71081e-05
5.70799e-05
5.70178e-05
5.69079e-05
5.67541e-05
5.65541e-05
5.63361e-05
5.60946e-05
5.58227e-05
5.54945e-05
5.51339e-05
5.478e-05
5.44585e-05
5.4143e-05
5.38031e-05
5.34398e-05
5.3079e-05
5.27216e-05
5.23797e-05
5.20781e-05
5.18094e-05
5.15078e-05
5.12295e-05
5.10171e-05
5.07798e-05
5.0491e-05
5.01632e-05
4.98123e-05
4.94423e-05
4.9022e-05
4.8562e-05
4.80944e-05
4.76099e-05
4.70803e-05
4.65134e-05
4.58899e-05
4.52003e-05
4.4471e-05
4.37657e-05
4.30112e-05
4.23351e-05
4.16152e-05
4.10224e-05
4.02141e-05
3.97788e-05
3.89974e-05
3.89761e-05
3.83774e-05
3.91e-05
3.8603e-05
4.17583e-05
5.37112e-05
5.42027e-05
5.3939e-05
5.3663e-05
5.35754e-05
5.36058e-05
5.36713e-05
5.37197e-05
5.37082e-05
5.36336e-05
5.3527e-05
5.34245e-05
5.33487e-05
5.33007e-05
5.32729e-05
5.32611e-05
5.32719e-05
5.33014e-05
5.33473e-05
5.33954e-05
5.34338e-05
5.34527e-05
5.34481e-05
5.34138e-05
5.33527e-05
5.32683e-05
5.31579e-05
5.30198e-05
5.28558e-05
5.26753e-05
5.24878e-05
5.22878e-05
5.20657e-05
5.18228e-05
5.1565e-05
5.12992e-05
5.10302e-05
5.07683e-05
5.05101e-05
5.02075e-05
4.9925e-05
4.96964e-05
4.94306e-05
4.91088e-05
4.87469e-05
4.83554e-05
4.79407e-05
4.74885e-05
4.70013e-05
4.6491e-05
4.5968e-05
4.5411e-05
4.48278e-05
4.41985e-05
4.3544e-05
4.28484e-05
4.21866e-05
4.14756e-05
4.08623e-05
4.01524e-05
3.96383e-05
3.8904e-05
3.85554e-05
3.78391e-05
3.79031e-05
3.73893e-05
3.8146e-05
3.77843e-05
4.11941e-05
4.98113e-05
5.05571e-05
5.04583e-05
5.02064e-05
5.00349e-05
4.99387e-05
4.98996e-05
4.9901e-05
4.99185e-05
4.99274e-05
4.99154e-05
4.98841e-05
4.98443e-05
4.98078e-05
4.9781e-05
4.97674e-05
4.97701e-05
4.97906e-05
4.98282e-05
4.98792e-05
4.99374e-05
4.99958e-05
5.00473e-05
5.00856e-05
5.01079e-05
5.01143e-05
5.01028e-05
5.00709e-05
5.00181e-05
4.99461e-05
4.98571e-05
4.97509e-05
4.96245e-05
4.94762e-05
4.93077e-05
4.91234e-05
4.89238e-05
4.87125e-05
4.84902e-05
4.82227e-05
4.79699e-05
4.77595e-05
4.75021e-05
4.71868e-05
4.68356e-05
4.64537e-05
4.60446e-05
4.56025e-05
4.51326e-05
4.46345e-05
4.41236e-05
4.35792e-05
4.30238e-05
4.24243e-05
4.18303e-05
4.1188e-05
4.05965e-05
3.99414e-05
3.94013e-05
3.87414e-05
3.83024e-05
3.76353e-05
3.73689e-05
3.67362e-05
3.6876e-05
3.64627e-05
3.7253e-05
3.71558e-05
4.02383e-05
4.58133e-05
4.66985e-05
4.68184e-05
4.67515e-05
4.66877e-05
4.66234e-05
4.65628e-05
4.65197e-05
4.65004e-05
4.65008e-05
4.65115e-05
4.65225e-05
4.65281e-05
4.65286e-05
4.65269e-05
4.65272e-05
4.65333e-05
4.65483e-05
4.65739e-05
4.66102e-05
4.66558e-05
4.67078e-05
4.67626e-05
4.68164e-05
4.68658e-05
4.6908e-05
4.69403e-05
4.69601e-05
4.69656e-05
4.6956e-05
4.69308e-05
4.6889e-05
4.68289e-05
4.67486e-05
4.66481e-05
4.65283e-05
4.63879e-05
4.62291e-05
4.60541e-05
4.58344e-05
4.56232e-05
4.54462e-05
4.52215e-05
4.4941e-05
4.46273e-05
4.42841e-05
4.39137e-05
4.35134e-05
4.309e-05
4.26369e-05
4.21734e-05
4.16755e-05
4.11806e-05
4.06378e-05
4.01253e-05
3.95469e-05
3.90465e-05
3.8452e-05
3.80007e-05
3.73973e-05
3.70407e-05
3.64385e-05
3.62535e-05
3.57056e-05
3.59107e-05
3.55937e-05
3.63731e-05
3.64529e-05
3.90965e-05
4.22051e-05
4.30356e-05
4.32262e-05
4.32819e-05
4.33454e-05
4.33871e-05
4.33965e-05
4.33866e-05
4.33724e-05
4.33654e-05
4.33703e-05
4.33858e-05
4.34076e-05
4.34317e-05
4.34558e-05
4.34795e-05
4.35034e-05
4.35291e-05
4.3558e-05
4.35912e-05
4.36292e-05
4.36717e-05
4.37179e-05
4.37663e-05
4.38152e-05
4.38624e-05
4.39058e-05
4.39432e-05
4.39725e-05
4.39918e-05
4.39997e-05
4.39947e-05
4.39751e-05
4.39392e-05
4.38856e-05
4.38142e-05
4.37229e-05
4.36128e-05
4.34861e-05
4.33172e-05
4.31541e-05
4.30199e-05
4.28397e-05
4.26083e-05
4.23465e-05
4.20578e-05
4.17438e-05
4.14021e-05
4.10411e-05
4.06505e-05
4.02539e-05
3.98202e-05
3.94019e-05
3.8927e-05
3.85043e-05
3.7992e-05
3.75882e-05
3.70516e-05
3.66893e-05
3.61443e-05
3.58599e-05
3.53317e-05
3.52102e-05
3.47509e-05
3.50411e-05
3.47314e-05
3.57384e-05
3.55049e-05
3.96648e-05
3.91049e-05
3.98185e-05
3.9972e-05
4.00397e-05
4.01482e-05
4.02565e-05
4.03385e-05
4.03926e-05
4.04257e-05
4.04473e-05
4.04665e-05
4.04885e-05
4.05154e-05
4.05469e-05
4.05821e-05
4.06197e-05
4.06588e-05
4.0699e-05
4.07401e-05
4.07822e-05
4.08256e-05
4.08704e-05
4.09164e-05
4.09635e-05
4.10109e-05
4.10579e-05
4.11033e-05
4.11457e-05
4.11837e-05
4.12157e-05
4.12402e-05
4.12559e-05
4.1261e-05
4.12538e-05
4.12329e-05
4.11975e-05
4.11449e-05
4.10761e-05
4.09922e-05
4.08701e-05
4.07546e-05
4.0664e-05
4.05296e-05
4.03505e-05
4.01443e-05
3.99147e-05
3.96624e-05
3.93849e-05
3.90916e-05
3.87693e-05
3.84466e-05
3.80825e-05
3.77449e-05
3.73381e-05
3.70041e-05
3.65512e-05
3.6242e-05
3.57495e-05
3.54805e-05
3.49747e-05
3.47734e-05
3.43019e-05
3.42507e-05
3.38823e-05
3.42318e-05
3.40223e-05
3.5091e-05
3.52588e-05
3.84108e-05
3.63791e-05
3.70062e-05
3.71124e-05
3.71487e-05
3.7241e-05
3.73543e-05
3.74616e-05
3.75542e-05
3.76302e-05
3.76919e-05
3.77434e-05
3.77887e-05
3.78311e-05
3.7873e-05
3.7916e-05
3.79609e-05
3.8008e-05
3.80572e-05
3.81079e-05
3.816e-05
3.82129e-05
3.82664e-05
3.83202e-05
3.8374e-05
3.84276e-05
3.84805e-05
3.85321e-05
3.85817e-05
3.86284e-05
3.86712e-05
3.87089e-05
3.87405e-05
3.87645e-05
3.87794e-05
3.8784e-05
3.87775e-05
3.87571e-05
3.87234e-05
3.8677e-05
3.85972e-05
3.85269e-05
3.84777e-05
3.8387e-05
3.82588e-05
3.8107e-05
3.79354e-05
3.77434e-05
3.75296e-05
3.73022e-05
3.70468e-05
3.67951e-05
3.64977e-05
3.62349e-05
3.58908e-05
3.56335e-05
3.52347e-05
3.50041e-05
3.45521e-05
3.43672e-05
3.38916e-05
3.37849e-05
3.334e-05
3.33987e-05
3.30738e-05
3.35112e-05
3.34392e-05
3.45349e-05
3.54253e-05
3.83611e-05
3.38876e-05
3.44682e-05
3.45556e-05
3.4572e-05
3.46403e-05
3.47346e-05
3.48334e-05
3.49302e-05
3.50217e-05
3.51065e-05
3.51846e-05
3.52561e-05
3.53218e-05
3.53829e-05
3.5441e-05
3.54977e-05
3.55543e-05
3.56118e-05
3.56705e-05
3.57307e-05
3.57921e-05
3.58547e-05
3.59179e-05
3.59817e-05
3.60455e-05
3.6109e-05
3.61717e-05
3.62331e-05
3.62925e-05
3.63493e-05
3.64024e-05
3.64513e-05
3.64946e-05
3.65311e-05
3.656e-05
3.65804e-05
3.65897e-05
3.65888e-05
3.65771e-05
3.65365e-05
3.65093e-05
3.64987e-05
3.64484e-05
3.63677e-05
3.62666e-05
3.61489e-05
3.60125e-05
3.58575e-05
3.56898e-05
3.54955e-05
3.53061e-05
3.5068e-05
3.48684e-05
3.4579e-05
3.43825e-05
3.40362e-05
3.38605e-05
3.34645e-05
3.333e-05
3.29185e-05
3.2868e-05
3.24828e-05
3.26337e-05
3.23336e-05
3.29087e-05
3.28549e-05
3.4413e-05
3.51976e-05
4.03711e-05
3.1561e-05
3.21129e-05
3.2202e-05
3.22187e-05
3.22784e-05
3.23598e-05
3.24463e-05
3.25345e-05
3.26234e-05
3.27125e-05
3.28011e-05
3.28879e-05
3.29718e-05
3.30519e-05
3.31285e-05
3.3202e-05
3.32736e-05
3.33441e-05
3.34143e-05
3.34849e-05
3.35562e-05
3.36285e-05
3.37019e-05
3.37762e-05
3.38513e-05
3.39268e-05
3.40025e-05
3.4078e-05
3.41525e-05
3.42257e-05
3.42967e-05
3.4365e-05
3.44294e-05
3.4489e-05
3.45432e-05
3.45908e-05
3.46296e-05
3.46607e-05
3.46823e-05
3.46788e-05
3.46934e-05
3.47191e-05
3.47065e-05
3.46694e-05
3.46155e-05
3.45463e-05
3.44603e-05
3.43576e-05
3.42419e-05
3.41013e-05
3.39638e-05
3.37763e-05
3.36287e-05
3.33849e-05
3.32397e-05
3.29411e-05
3.28102e-05
3.24806e-05
3.23732e-05
3.20664e-05
3.20125e-05
3.17723e-05
3.19049e-05
3.17349e-05
3.23742e-05
3.24008e-05
3.44001e-05
3.52683e-05
4.45055e-05
2.93936e-05
2.99178e-05
3.00124e-05
3.00372e-05
3.0099e-05
3.01782e-05
3.02601e-05
3.03427e-05
3.04267e-05
3.0513e-05
3.0602e-05
3.06932e-05
3.07853e-05
3.0877e-05
3.09675e-05
3.10565e-05
3.1144e-05
3.12304e-05
3.13159e-05
3.14011e-05
3.14864e-05
3.15721e-05
3.16585e-05
3.17458e-05
3.18341e-05
3.19233e-05
3.20133e-05
3.21039e-05
3.21946e-05
3.22851e-05
3.23749e-05
3.24633e-05
3.25492e-05
3.26322e-05
3.27115e-05
3.27859e-05
3.28536e-05
3.2916e-05
3.29693e-05
3.30025e-05
3.30569e-05
3.31155e-05
3.31395e-05
3.31421e-05
3.31323e-05
3.31057e-05
3.3066e-05
3.30075e-05
3.29376e-05
3.28416e-05
3.27472e-05
3.26029e-05
3.24983e-05
3.22953e-05
3.21993e-05
3.1942e-05
3.18659e-05
3.1592e-05
3.15278e-05
3.13161e-05
3.1257e-05
3.11768e-05
3.12362e-05
3.12963e-05
3.19325e-05
3.22195e-05
3.49951e-05
3.69118e-05
4.76098e-05
2.73794e-05
2.78738e-05
2.79705e-05
2.80021e-05
2.80676e-05
2.81487e-05
2.82313e-05
2.83135e-05
2.83962e-05
2.84808e-05
2.85686e-05
2.86598e-05
2.87538e-05
2.885e-05
2.89475e-05
2.90459e-05
2.91449e-05
2.92443e-05
2.93441e-05
2.94443e-05
2.9545e-05
2.96463e-05
2.97484e-05
2.98516e-05
2.9956e-05
3.00616e-05
3.01683e-05
3.02763e-05
3.03851e-05
3.04946e-05
3.06044e-05
3.0714e-05
3.08224e-05
3.09296e-05
3.10343e-05
3.1136e-05
3.12325e-05
3.13262e-05
3.14102e-05
3.14816e-05
3.15734e-05
3.16626e-05
3.17225e-05
3.17619e-05
3.17926e-05
3.1803e-05
3.1805e-05
3.17828e-05
3.17537e-05
3.16945e-05
3.16383e-05
3.15353e-05
3.14679e-05
3.13124e-05
3.12609e-05
3.10511e-05
3.10374e-05
3.0802e-05
3.08192e-05
3.06356e-05
3.06468e-05
3.06232e-05
3.07048e-05
3.09991e-05
3.17145e-05
3.28935e-05
3.69088e-05
4.0867e-05
4.47369e-05
2.55247e-05
2.59897e-05
2.60857e-05
2.61211e-05
2.61881e-05
2.62701e-05
2.63538e-05
2.64371e-05
2.65207e-05
2.66058e-05
2.66937e-05
2.6785e-05
2.68797e-05
2.69775e-05
2.70779e-05
2.71809e-05
2.72863e-05
2.73939e-05
2.75035e-05
2.76151e-05
2.77285e-05
2.78438e-05
2.79608e-05
2.80797e-05
2.82005e-05
2.83232e-05
2.84478e-05
2.85744e-05
2.87025e-05
2.88323e-05
2.89631e-05
2.90951e-05
2.92266e-05
2.93588e-05
2.9489e-05
2.96185e-05
2.97432e-05
2.98678e-05
2.9981e-05
3.00908e-05
3.02163e-05
3.03336e-05
3.04253e-05
3.04994e-05
3.05658e-05
3.06106e-05
3.06505e-05
3.06618e-05
3.06722e-05
3.06488e-05
3.0632e-05
3.05739e-05
3.05423e-05
3.04469e-05
3.04271e-05
3.0287e-05
3.03148e-05
3.01267e-05
3.02284e-05
3.00106e-05
3.01976e-05
3.00506e-05
3.05003e-05
3.07411e-05
3.26204e-05
3.47365e-05
4.21452e-05
4.4361e-05
3.19706e-05
2.38094e-05
2.42475e-05
2.43429e-05
2.43813e-05
2.44488e-05
2.45307e-05
2.46147e-05
2.46988e-05
2.47836e-05
2.487e-05
2.49593e-05
2.5052e-05
2.51482e-05
2.52477e-05
2.53504e-05
2.54564e-05
2.55657e-05
2.56784e-05
2.57945e-05
2.59138e-05
2.60362e-05
2.61619e-05
2.62906e-05
2.64224e-05
2.65572e-05
2.66952e-05
2.6836e-05
2.69799e-05
2.71263e-05
2.72758e-05
2.74271e-05
2.75812e-05
2.77355e-05
2.78928e-05
2.80482e-05
2.82055e-05
2.83581e-05
2.85136e-05
2.86546e-05
2.88035e-05
2.89609e-05
2.91076e-05
2.92296e-05
2.93406e-05
2.944e-05
2.95221e-05
2.95971e-05
2.9646e-05
2.96956e-05
2.97113e-05
2.97372e-05
2.9725e-05
2.97333e-05
2.97009e-05
2.97049e-05
2.96532e-05
2.96778e-05
2.95947e-05
2.96669e-05
2.95588e-05
2.97477e-05
2.98137e-05
3.04449e-05
3.17974e-05
3.47345e-05
3.94429e-05
3.90071e-05
3.21365e-05
2.70628e-05
2.22421e-05
2.26554e-05
2.27501e-05
2.27911e-05
2.28587e-05
2.29399e-05
2.30234e-05
2.31074e-05
2.31925e-05
2.32796e-05
2.33698e-05
2.34636e-05
2.35612e-05
2.36623e-05
2.37671e-05
2.38756e-05
2.39879e-05
2.41043e-05
2.42247e-05
2.43494e-05
2.44782e-05
2.46113e-05
2.47487e-05
2.48903e-05
2.50361e-05
2.51864e-05
2.53407e-05
2.54994e-05
2.56618e-05
2.58288e-05
2.59985e-05
2.61728e-05
2.63481e-05
2.65286e-05
2.67075e-05
2.68912e-05
2.70705e-05
2.72548e-05
2.74241e-05
2.76112e-05
2.77977e-05
2.79728e-05
2.81254e-05
2.82754e-05
2.84086e-05
2.85336e-05
2.86455e-05
2.87397e-05
2.88304e-05
2.88919e-05
2.89638e-05
2.89995e-05
2.90528e-05
2.90773e-05
2.91095e-05
2.91329e-05
2.91503e-05
2.91661e-05
2.92001e-05
2.92878e-05
2.95093e-05
3.01071e-05
3.17223e-05
3.43462e-05
4.00219e-05
3.53664e-05
2.80369e-05
2.34884e-05
1.87664e-05
2.08e-05
2.11904e-05
2.12847e-05
2.13285e-05
2.13969e-05
2.1478e-05
2.15615e-05
2.16459e-05
2.17315e-05
2.18194e-05
2.19105e-05
2.20055e-05
2.21045e-05
2.22073e-05
2.23141e-05
2.24249e-05
2.25401e-05
2.26596e-05
2.27839e-05
2.29129e-05
2.30468e-05
2.31857e-05
2.33297e-05
2.34789e-05
2.36333e-05
2.37933e-05
2.39584e-05
2.41295e-05
2.43054e-05
2.44878e-05
2.4674e-05
2.4867e-05
2.50626e-05
2.52655e-05
2.54684e-05
2.56783e-05
2.58863e-05
2.60988e-05
2.63034e-05
2.65288e-05
2.67495e-05
2.69583e-05
2.71511e-05
2.73416e-05
2.75167e-05
2.76846e-05
2.78393e-05
2.79778e-05
2.81141e-05
2.82192e-05
2.83414e-05
2.84175e-05
2.85187e-05
2.85891e-05
2.86432e-05
2.87416e-05
2.87459e-05
2.88795e-05
2.90022e-05
2.93105e-05
3.01332e-05
3.16388e-05
3.45872e-05
3.72235e-05
3.08298e-05
2.43508e-05
1.92839e-05
1.59605e-05
1.44921e-05
1.9513e-05
1.98812e-05
1.99742e-05
2.002e-05
2.00886e-05
2.01694e-05
2.02528e-05
2.03375e-05
2.04236e-05
2.05122e-05
2.06041e-05
2.07001e-05
2.08002e-05
2.09044e-05
2.10129e-05
2.11258e-05
2.12433e-05
2.13656e-05
2.14931e-05
2.16259e-05
2.17641e-05
2.19082e-05
2.2058e-05
2.2214e-05
2.23761e-05
2.25449e-05
2.27198e-05
2.29018e-05
2.309e-05
2.32856e-05
2.34869e-05
2.36962e-05
2.39106e-05
2.41329e-05
2.43593e-05
2.45923e-05
2.48295e-05
2.5067e-05
2.53124e-05
2.55683e-05
2.58225e-05
2.60619e-05
2.63017e-05
2.65302e-05
2.67577e-05
2.69676e-05
2.71787e-05
2.73591e-05
2.75574e-05
2.76944e-05
2.78896e-05
2.79715e-05
2.81708e-05
2.82102e-05
2.84022e-05
2.84604e-05
2.86605e-05
2.88941e-05
2.94239e-05
3.02147e-05
3.18978e-05
3.47757e-05
3.18306e-05
2.61809e-05
2.08417e-05
1.68017e-05
1.45083e-05
1.29098e-05
1.29444e-05
1.83355e-05
1.8684e-05
1.87759e-05
1.88234e-05
1.88922e-05
1.89728e-05
1.90564e-05
1.91416e-05
1.92288e-05
1.93186e-05
1.94119e-05
1.95094e-05
1.96113e-05
1.97175e-05
1.98282e-05
1.99435e-05
2.00637e-05
2.01891e-05
2.032e-05
2.04565e-05
2.0599e-05
2.07477e-05
2.09029e-05
2.1065e-05
2.12342e-05
2.14111e-05
2.15956e-05
2.17887e-05
2.19899e-05
2.22e-05
2.24188e-05
2.26463e-05
2.28834e-05
2.31278e-05
2.33829e-05
2.36425e-05
2.39147e-05
2.41828e-05
2.44779e-05
2.47718e-05
2.50738e-05
2.53556e-05
2.56499e-05
2.59261e-05
2.62051e-05
2.64679e-05
2.67251e-05
2.69602e-05
2.71971e-05
2.73914e-05
2.76133e-05
2.77729e-05
2.79886e-05
2.81437e-05
2.83913e-05
2.86281e-05
2.90908e-05
2.96746e-05
3.03491e-05
3.22465e-05
3.23748e-05
2.67724e-05
2.14951e-05
1.70807e-05
1.40531e-05
1.23045e-05
1.15212e-05
1.06683e-05
1.04853e-05
1.73382e-05
1.76681e-05
1.77583e-05
1.78071e-05
1.78757e-05
1.79555e-05
1.80387e-05
1.8124e-05
1.82115e-05
1.83019e-05
1.8396e-05
1.84946e-05
1.85976e-05
1.87054e-05
1.88179e-05
1.89353e-05
1.9058e-05
1.91862e-05
1.93203e-05
1.94606e-05
1.96073e-05
1.97607e-05
1.99212e-05
2.00891e-05
2.02646e-05
2.04481e-05
2.06403e-05
2.08413e-05
2.10523e-05
2.12724e-05
2.15046e-05
2.17458e-05
2.20015e-05
2.22642e-05
2.25445e-05
2.28287e-05
2.31321e-05
2.34345e-05
2.37687e-05
2.40903e-05
2.44303e-05
2.47578e-05
2.51014e-05
2.54404e-05
2.57707e-05
2.61121e-05
2.6417e-05
2.67384e-05
2.70225e-05
2.73109e-05
2.75824e-05
2.7875e-05
2.81523e-05
2.84882e-05
2.89659e-05
2.93406e-05
2.97364e-05
3.05515e-05
3.16064e-05
2.62548e-05
2.14273e-05
1.69068e-05
1.36631e-05
1.16966e-05
1.00511e-05
9.20395e-06
8.8353e-06
8.70832e-06
8.6123e-06
1.64101e-05
1.67244e-05
1.68134e-05
1.68629e-05
1.69308e-05
1.70098e-05
1.70926e-05
1.71779e-05
1.72658e-05
1.7357e-05
1.74522e-05
1.75521e-05
1.76567e-05
1.77663e-05
1.78809e-05
1.80007e-05
1.81259e-05
1.8257e-05
1.83945e-05
1.85385e-05
1.86898e-05
1.88485e-05
1.90159e-05
1.91914e-05
1.9377e-05
1.95714e-05
1.97774e-05
1.99924e-05
2.0221e-05
2.04587e-05
2.07128e-05
2.09758e-05
2.12581e-05
2.15488e-05
2.18619e-05
2.21827e-05
2.25274e-05
2.28889e-05
2.32818e-05
2.36692e-05
2.4074e-05
2.4474e-05
2.48841e-05
2.52885e-05
2.56879e-05
2.60886e-05
2.6481e-05
2.68587e-05
2.72645e-05
2.7616e-05
2.80145e-05
2.84227e-05
2.88414e-05
2.90149e-05
2.91762e-05
2.92334e-05
2.92835e-05
2.48757e-05
2.00498e-05
1.62885e-05
1.28219e-05
1.01992e-05
8.64285e-06
7.74919e-06
7.27519e-06
7.00986e-06
6.95963e-06
7.47799e-06
7.23696e-06
1.57672e-05
1.60683e-05
1.61582e-05
1.62104e-05
1.62794e-05
1.63583e-05
1.64408e-05
1.65256e-05
1.6613e-05
1.67037e-05
1.67984e-05
1.68979e-05
1.70023e-05
1.71119e-05
1.72267e-05
1.73469e-05
1.74731e-05
1.76048e-05
1.77434e-05
1.78878e-05
1.80401e-05
1.81986e-05
1.83666e-05
1.85414e-05
1.87283e-05
1.89229e-05
1.91329e-05
1.93512e-05
1.95884e-05
1.98342e-05
2.01026e-05
2.03799e-05
2.06829e-05
2.09957e-05
2.13355e-05
2.16855e-05
2.20614e-05
2.24542e-05
2.28667e-05
2.3297e-05
2.37514e-05
2.42269e-05
2.47205e-05
2.52229e-05
2.57354e-05
2.62524e-05
2.67738e-05
2.72385e-05
2.78107e-05
2.81752e-05
2.85008e-05
2.83399e-05
2.80535e-05
2.76725e-05
2.60459e-05
2.18458e-05
1.79226e-05
1.44685e-05
1.16808e-05
9.29143e-06
7.57529e-06
6.6226e-06
5.94135e-06
5.86363e-06
5.36768e-06
5.54782e-06
5.68019e-06
5.69009e-06
6.07107e-06
1.50298e-05
1.53211e-05
1.54096e-05
1.54622e-05
1.55308e-05
1.56098e-05
1.5693e-05
1.57791e-05
1.58681e-05
1.59605e-05
1.60571e-05
1.61584e-05
1.62649e-05
1.63767e-05
1.64943e-05
1.66175e-05
1.67478e-05
1.68842e-05
1.70296e-05
1.71815e-05
1.73443e-05
1.75134e-05
1.76953e-05
1.7883e-05
1.8086e-05
1.82954e-05
1.85235e-05
1.87595e-05
1.90189e-05
1.92891e-05
1.95875e-05
1.98984e-05
2.02428e-05
2.06049e-05
2.09999e-05
2.14251e-05
2.19002e-05
2.24076e-05
2.29387e-05
2.34991e-05
2.40811e-05
2.46952e-05
2.53094e-05
2.59093e-05
2.65017e-05
2.70708e-05
2.74919e-05
2.76445e-05
2.75793e-05
2.70046e-05
2.63052e-05
2.53941e-05
2.14222e-05
1.78128e-05
1.46925e-05
1.19421e-05
9.79802e-06
7.84587e-06
6.50311e-06
5.40107e-06
4.60673e-06
4.36649e-06
4.33871e-06
4.2986e-06
3.94381e-06
3.9333e-06
4.092e-06
4.27235e-06
4.91422e-06
1.50512e-05
1.53259e-05
1.54124e-05
1.54639e-05
1.55295e-05
1.56038e-05
1.56824e-05
1.57642e-05
1.58492e-05
1.59376e-05
1.60302e-05
1.61275e-05
1.623e-05
1.63373e-05
1.64503e-05
1.6568e-05
1.66922e-05
1.68212e-05
1.69585e-05
1.71008e-05
1.72543e-05
1.7414e-05
1.75881e-05
1.77689e-05
1.79663e-05
1.81716e-05
1.83952e-05
1.86291e-05
1.88835e-05
1.91532e-05
1.9446e-05
1.97579e-05
2.00994e-05
2.04665e-05
2.08648e-05
2.1288e-05
2.1743e-05
2.22347e-05
2.27565e-05
2.33172e-05
2.38748e-05
2.44376e-05
2.48988e-05
2.52474e-05
2.54416e-05
2.54206e-05
2.50594e-05
2.43344e-05
2.23703e-05
1.87233e-05
1.58149e-05
1.29927e-05
1.08569e-05
8.95195e-06
7.49951e-06
6.28778e-06
5.28776e-06
4.53033e-06
4.01669e-06
3.49088e-06
3.19853e-06
3.04341e-06
2.94221e-06
2.69696e-06
2.69426e-06
2.69944e-06
2.85644e-06
3.35756e-06
4.17489e-06
1.43337e-05
1.46414e-05
1.47464e-05
1.4815e-05
1.48978e-05
1.49904e-05
1.50867e-05
1.5186e-05
1.52884e-05
1.5395e-05
1.55066e-05
1.56246e-05
1.57493e-05
1.58815e-05
1.60215e-05
1.61695e-05
1.63268e-05
1.64927e-05
1.66698e-05
1.68561e-05
1.70548e-05
1.72638e-05
1.74889e-05
1.77275e-05
1.7986e-05
1.82618e-05
1.8559e-05
1.88842e-05
1.92435e-05
1.9642e-05
2.00682e-05
2.05257e-05
2.0994e-05
2.14925e-05
2.20029e-05
2.25265e-05
2.29846e-05
2.34055e-05
2.37383e-05
2.39776e-05
2.41934e-05
2.42252e-05
2.40166e-05
2.23497e-05
1.94891e-05
1.68404e-05
1.43692e-05
1.22121e-05
1.03554e-05
8.82178e-06
7.54381e-06
6.48419e-06
5.6068e-06
4.86099e-06
4.2125e-06
3.69162e-06
3.2923e-06
2.96735e-06
2.70013e-06
2.41524e-06
2.20513e-06
2.11218e-06
2.06251e-06
2.04211e-06
2.02928e-06
1.95255e-06
1.97283e-06
1.90446e-06
1.98393e-06
1.69628e-05
1.72314e-05
1.72902e-05
1.73083e-05
1.73531e-05
1.74184e-05
1.74979e-05
1.75843e-05
1.76776e-05
1.77739e-05
1.7876e-05
1.79807e-05
1.8092e-05
1.82074e-05
1.83293e-05
1.84578e-05
1.85936e-05
1.87379e-05
1.89076e-05
1.90709e-05
1.92857e-05
1.94538e-05
1.96469e-05
1.97999e-05
2.0062e-05
2.0309e-05
2.05653e-05
2.08272e-05
2.09817e-05
2.10762e-05
2.12821e-05
2.1413e-05
2.15085e-05
2.16272e-05
2.08602e-05
1.96085e-05
1.8226e-05
1.67791e-05
1.53392e-05
1.39444e-05
1.26157e-05
1.1383e-05
1.02356e-05
9.19505e-06
8.23155e-06
7.32718e-06
6.51907e-06
5.79343e-06
5.19649e-06
4.67281e-06
4.22166e-06
3.78264e-06
3.43954e-06
3.07135e-06
2.7163e-06
2.37864e-06
2.04438e-06
1.75854e-06
1.51247e-06
1.27301e-06
1.0452e-06
8.08823e-07
6.47314e-07
5.35573e-07
4.74039e-07
4.32167e-07
4.24087e-07
4.13243e-07
4.4289e-07
9.7904e-06
9.6699e-06
9.55041e-06
9.42482e-06
9.22839e-06
9.12867e-06
8.97135e-06
8.8445e-06
8.72044e-06
8.62879e-06
8.52216e-06
8.44681e-06
8.34943e-06
8.24489e-06
8.13438e-06
7.96102e-06
7.81097e-06
7.69171e-06
7.59067e-06
7.49104e-06
7.40876e-06
7.29729e-06
7.23894e-06
7.12778e-06
7.0329e-06
6.96466e-06
6.86803e-06
6.74241e-06
6.62134e-06
6.52667e-06
6.45356e-06
6.39242e-06
6.36333e-06
6.35545e-06
6.34755e-06
6.33644e-06
6.31755e-06
6.28878e-06
6.24877e-06
6.19887e-06
6.1083e-06
6.01057e-06
5.81897e-06
5.66371e-06
5.59255e-06
5.39712e-06
5.07758e-06
4.68766e-06
4.29409e-06
3.89085e-06
3.47407e-06
3.02116e-06
2.58476e-06
2.08578e-06
1.61741e-06
1.19523e-06
8.35465e-07
5.55975e-07
3.719e-07
2.58504e-07
1.92424e-07
1.55272e-07
1.38896e-07
1.35394e-07
1.31996e-07
1.31249e-07
1.37509e-07
1.53376e-07
2.1128e-07
3.60093e-06
3.71059e-06
3.82349e-06
3.93974e-06
4.05861e-06
4.18061e-06
4.30494e-06
4.43177e-06
4.56068e-06
4.69156e-06
4.82421e-06
4.93713e-06
5.02196e-06
5.10734e-06
5.19345e-06
5.28003e-06
5.36741e-06
5.45496e-06
5.54392e-06
5.63179e-06
5.72297e-06
5.80952e-06
5.90486e-06
5.98727e-06
6.08885e-06
6.16816e-06
6.26745e-06
6.3599e-06
6.45651e-06
6.53361e-06
6.68323e-06
6.72815e-06
6.95825e-06
7.06551e-06
7.04662e-06
6.9769e-06
6.89908e-06
6.81273e-06
6.71586e-06
6.6058e-06
6.47911e-06
6.33296e-06
6.16364e-06
5.96827e-06
5.7439e-06
5.38419e-06
4.93228e-06
4.44343e-06
3.92395e-06
3.38359e-06
2.83343e-06
2.28247e-06
1.76166e-06
1.22864e-06
7.26076e-07
3.39656e-07
1.17623e-07
3.49517e-08
2.37603e-08
3.28171e-08
4.47937e-08
5.13029e-08
5.31759e-08
5.06126e-08
4.51302e-08
4.06591e-08
3.68033e-08
3.15654e-08
2.31832e-08
7.17655e-05
7.06946e-05
6.89678e-05
6.935e-05
6.9472e-05
7.01099e-05
7.08852e-05
7.18419e-05
7.1149e-05
6.88888e-05
6.85247e-05
6.8395e-05
6.77865e-05
6.8826e-05
6.97054e-05
7.20616e-05
6.90549e-05
6.85225e-05
7.0149e-05
7.02089e-05
6.68315e-05
6.69616e-05
6.94658e-05
6.88816e-05
7.02507e-05
7.05503e-05
6.95863e-05
6.87358e-05
6.92879e-05
7.10287e-05
6.98217e-05
6.94395e-05
6.95445e-05
7.0601e-05
6.98719e-05
7.03714e-05
7.07378e-05
7.11492e-05
7.15111e-05
7.39908e-05
7.37863e-05
7.19118e-05
7.26873e-05
7.24452e-05
7.22348e-05
7.22952e-05
7.3182e-05
7.20281e-05
7.34752e-05
7.72961e-05
7.91972e-05
7.99496e-05
7.81299e-05
7.51409e-05
7.06186e-05
7.02878e-05
7.11169e-05
7.24916e-05
7.15798e-05
6.7195e-05
6.59879e-05
6.65717e-05
6.66861e-05
6.70088e-05
6.72812e-05
6.70351e-05
6.62563e-05
6.51294e-05
6.46177e-05
6.46928e-05
6.48019e-05
6.52305e-05
6.59061e-05
6.65333e-05
6.57308e-05
6.39104e-05
6.45127e-05
6.54956e-05
6.40607e-05
6.25728e-05
6.31387e-05
6.45626e-05
6.43655e-05
6.53533e-05
6.50963e-05
6.47559e-05
6.3809e-05
6.47806e-05
6.53885e-05
6.46902e-05
6.45963e-05
6.5004e-05
6.53367e-05
6.51805e-05
6.53567e-05
6.58339e-05
6.59217e-05
6.60471e-05
6.72116e-05
6.7933e-05
6.74492e-05
6.7315e-05
6.72659e-05
6.76786e-05
6.73303e-05
6.78715e-05
6.70239e-05
6.68727e-05
6.85097e-05
7.03844e-05
7.22015e-05
7.29156e-05
7.22001e-05
6.94583e-05
6.76832e-05
6.61996e-05
6.62708e-05
6.57238e-05
6.34127e-05
6.25476e-05
6.31354e-05
6.29859e-05
6.28344e-05
6.24035e-05
6.17143e-05
6.10312e-05
6.06522e-05
6.07136e-05
6.08681e-05
6.11134e-05
6.14501e-05
6.14812e-05
6.11715e-05
6.00068e-05
5.9813e-05
6.03642e-05
6.03126e-05
5.88179e-05
5.81905e-05
5.91676e-05
5.97731e-05
5.99476e-05
6.04834e-05
6.0041e-05
5.98607e-05
5.92497e-05
5.99615e-05
6.03028e-05
5.98566e-05
6.00383e-05
6.02849e-05
6.04039e-05
6.04568e-05
6.0626e-05
6.09683e-05
6.11759e-05
6.13123e-05
6.18287e-05
6.26884e-05
6.29184e-05
6.25878e-05
6.24344e-05
6.27911e-05
6.27083e-05
6.29526e-05
6.26484e-05
6.21546e-05
6.23398e-05
6.31447e-05
6.43478e-05
6.55136e-05
6.62058e-05
6.58869e-05
6.49236e-05
6.36172e-05
6.29997e-05
6.14131e-05
6.01075e-05
5.90371e-05
5.92885e-05
5.88924e-05
5.84798e-05
5.79947e-05
5.75703e-05
5.73349e-05
5.7315e-05
5.74088e-05
5.74968e-05
5.75712e-05
5.74833e-05
5.70825e-05
5.64822e-05
5.59924e-05
5.61945e-05
5.62484e-05
5.55614e-05
5.45868e-05
5.4612e-05
5.53797e-05
5.56548e-05
5.59336e-05
5.61565e-05
5.56914e-05
5.55112e-05
5.51686e-05
5.56719e-05
5.58705e-05
5.56419e-05
5.58699e-05
5.59668e-05
5.60368e-05
5.61087e-05
5.62813e-05
5.65183e-05
5.6728e-05
5.68838e-05
5.71584e-05
5.78047e-05
5.83242e-05
5.82352e-05
5.80168e-05
5.81064e-05
5.8146e-05
5.82542e-05
5.82287e-05
5.79388e-05
5.76733e-05
5.77112e-05
5.81236e-05
5.88227e-05
5.95761e-05
6.01125e-05
6.02359e-05
5.99175e-05
5.98277e-05
5.82472e-05
5.64425e-05
5.52816e-05
5.54124e-05
5.50233e-05
5.47113e-05
5.44506e-05
5.42915e-05
5.42337e-05
5.42279e-05
5.42083e-05
5.41302e-05
5.3942e-05
5.35755e-05
5.31014e-05
5.27082e-05
5.25717e-05
5.25579e-05
5.21672e-05
5.14432e-05
5.10432e-05
5.13492e-05
5.1809e-05
5.19504e-05
5.21816e-05
5.21835e-05
5.17584e-05
5.15892e-05
5.14016e-05
5.17704e-05
5.18619e-05
5.17663e-05
5.19579e-05
5.19963e-05
5.20491e-05
5.2113e-05
5.22599e-05
5.24361e-05
5.2601e-05
5.27327e-05
5.28788e-05
5.3289e-05
5.38196e-05
5.4011e-05
5.38946e-05
5.38302e-05
5.3834e-05
5.38818e-05
5.39259e-05
5.38433e-05
5.36394e-05
5.34476e-05
5.34101e-05
5.35875e-05
5.39468e-05
5.43964e-05
5.48185e-05
5.50517e-05
5.55327e-05
5.45188e-05
5.28148e-05
5.17377e-05
5.19155e-05
5.16448e-05
5.1471e-05
5.13356e-05
5.12347e-05
5.11435e-05
5.10277e-05
5.08588e-05
5.06128e-05
5.02762e-05
4.98816e-05
4.95387e-05
4.9318e-05
4.91657e-05
4.88823e-05
4.83587e-05
4.78896e-05
4.7842e-05
4.81507e-05
4.83863e-05
4.84633e-05
4.85898e-05
4.84473e-05
4.80818e-05
4.79375e-05
4.78407e-05
4.81028e-05
4.81328e-05
4.81022e-05
4.82501e-05
4.82688e-05
4.83126e-05
4.83696e-05
4.8486e-05
4.86217e-05
4.87537e-05
4.88663e-05
4.89503e-05
4.91849e-05
4.96033e-05
4.99225e-05
4.99722e-05
4.99101e-05
4.98653e-05
4.98638e-05
4.99032e-05
4.99214e-05
4.98529e-05
4.9713e-05
4.95732e-05
4.95042e-05
4.95497e-05
4.9714e-05
4.99709e-05
5.02177e-05
5.08318e-05
5.02047e-05
4.9536e-05
4.85731e-05
4.88006e-05
4.85966e-05
4.84612e-05
4.83204e-05
4.81655e-05
4.79828e-05
4.77586e-05
4.74853e-05
4.71682e-05
4.68303e-05
4.65185e-05
4.6273e-05
4.60589e-05
4.5787e-05
4.53916e-05
4.49684e-05
4.47514e-05
4.48394e-05
4.50428e-05
4.51367e-05
4.51674e-05
4.51826e-05
4.49636e-05
4.46592e-05
4.45431e-05
4.44977e-05
4.46741e-05
4.46719e-05
4.46735e-05
4.47807e-05
4.4787e-05
4.48225e-05
4.48706e-05
4.49616e-05
4.50683e-05
4.51797e-05
4.52861e-05
4.53552e-05
4.54847e-05
4.57673e-05
4.60829e-05
4.62532e-05
4.62737e-05
4.62314e-05
4.6203e-05
4.62025e-05
4.62288e-05
4.62391e-05
4.62019e-05
4.61227e-05
4.60315e-05
4.59673e-05
4.5958e-05
4.6022e-05
4.611e-05
4.65966e-05
4.60476e-05
4.65685e-05
4.56661e-05
4.58823e-05
4.56727e-05
4.55063e-05
4.53117e-05
4.509e-05
4.48404e-05
4.4561e-05
4.42621e-05
4.39598e-05
4.36744e-05
4.34196e-05
4.31802e-05
4.29079e-05
4.25716e-05
4.22092e-05
4.19406e-05
4.18729e-05
4.19651e-05
4.20511e-05
4.20621e-05
4.20452e-05
4.19681e-05
4.17229e-05
4.14758e-05
4.13831e-05
4.1366e-05
4.14766e-05
4.1459e-05
4.1477e-05
4.155e-05
4.1548e-05