/*--------------------------------*- C++ -*----------------------------------*\
| =========                 |                                                 |
| \\      /  F ield         | OpenFOAM: The Open Source CFD Toolbox           |
|  \\    /   O peration     | Version:  2312                                  |
|   \\  /    A nd           | Website:  www.openfoam.com                      |
|    \\/     M anipulation  |                                                 |
\*---------------------------------------------------------------------------*/
FoamFile
{
    version     2.0;
    format      ascii;
    arch        "LSB;label=32;scalar=64";
    class       volScalarField;
    location    "1200";
    object      omega;
}
// * * * * * * * * * * * * * * * * * * * * * * * * * * * * * * * * * * * * * //

dimensions      [0 0 -1 0 0 0 0];

internalField   nonuniform List<scalar> 
76025
(
0.027884
0.0278604
0.0278241
0.0278246
0.0278339
0.027876
0.0278861
0.0278803
0.0278677
0.027857
0.0278416
0.0278352
0.0278166
0.0277945
0.0277774
0.0277656
0.0277759
0.0277848
0.027803
0.0278227
0.0278518
0.0278837
0.027928
0.0279732
0.0280543
0.0280975
0.0282146
0.0282688
0.0283849
0.0284678
0.0286206
0.0286966
0.0288777
0.0289907
0.0291512
0.0293041
0.0294511
0.0296815
0.0298724
0.0300758
0.0303017
0.0305149
0.0308055
0.0310264
0.0312522
0.0314465
0.0316746
0.0318508
0.0320163
0.032157
0.0323388
0.0324398
0.032662
0.0328832
0.0332202
0.0335667
0.0341898
0.0348794
0.0357473
0.036713
0.0379575
0.0388644
0.0413503
0.0425708
0.045837
0.0478516
0.0524855
0.0552359
0.0594155
0.028235
0.0282089
0.0281685
0.0281376
0.0281217
0.0281243
0.0281377
0.0281593
0.0281712
0.0281789
0.02818
0.0281775
0.0281774
0.0281747
0.0281743
0.028169
0.0281687
0.0281787
0.0282051
0.0282346
0.02828
0.0283228
0.0283833
0.0284394
0.0285229
0.0285929
0.0286928
0.0287817
0.0288947
0.0289994
0.0291297
0.0292478
0.0293876
0.0295264
0.0296743
0.0298309
0.0299904
0.0301549
0.0303193
0.0304846
0.0306554
0.0308256
0.0309857
0.0311424
0.0312946
0.0314472
0.0315943
0.0317464
0.0319117
0.0320907
0.0322912
0.0325485
0.0328752
0.0332285
0.0337743
0.034269
0.0351315
0.035784
0.0370148
0.0379616
0.0396167
0.0409523
0.0434417
0.0450399
0.048631
0.0509406
0.0558981
0.0587434
0.0667072
0.0285348
0.028564
0.0285641
0.0285495
0.0285278
0.0285211
0.0285215
0.0285334
0.0285535
0.0285714
0.0285863
0.0285952
0.0286033
0.0286067
0.0286124
0.0286168
0.0286251
0.0286375
0.0286604
0.0286891
0.0287308
0.0287766
0.0288354
0.0288984
0.0289757
0.0290566
0.0291487
0.0292445
0.029352
0.0294622
0.0295819
0.0297041
0.0298317
0.0299639
0.0301014
0.0302432
0.0303905
0.0305393
0.030689
0.0308398
0.0309938
0.0311467
0.0312998
0.0314547
0.0316183
0.0317875
0.0319681
0.0321664
0.0323901
0.0326532
0.0329475
0.0333121
0.0337224
0.0342276
0.0348287
0.0354982
0.0363964
0.0372367
0.0385604
0.0396202
0.0415171
0.0428235
0.0456074
0.0473199
0.0511437
0.053577
0.058885
0.0619455
0.0700689
0.028799
0.0288346
0.0288569
0.0288673
0.0288703
0.0288725
0.0288806
0.0288958
0.0289218
0.0289535
0.0289892
0.0290231
0.0290561
0.0290852
0.0291123
0.029137
0.0291612
0.0291857
0.029214
0.0292458
0.0292851
0.0293303
0.0293843
0.0294454
0.0295158
0.0295933
0.0296795
0.0297718
0.0298724
0.0299784
0.0300908
0.0302073
0.0303287
0.030454
0.0305844
0.0307183
0.0308577
0.0310009
0.0311469
0.0312971
0.0314527
0.0316119
0.0317777
0.0319522
0.0321418
0.032345
0.03257
0.032819
0.0331038
0.0334289
0.0338046
0.03424
0.0347515
0.0353301
0.0360509
0.0367909
0.0378356
0.0387553
0.0402497
0.0414314
0.0435135
0.0450272
0.0480728
0.0499541
0.0542335
0.0568812
0.0625601
0.0657927
0.0746287
0.0292029
0.0292342
0.0292661
0.029293
0.0293137
0.029328
0.0293413
0.0293557
0.029376
0.0294033
0.0294386
0.0294794
0.0295247
0.0295723
0.0296209
0.0296694
0.0297175
0.0297651
0.0298134
0.0298625
0.0299144
0.0299692
0.0300289
0.0300931
0.0301634
0.0302391
0.0303214
0.030409
0.0305032
0.0306024
0.0307078
0.0308174
0.0309329
0.0310526
0.0311785
0.0313091
0.0314466
0.0315904
0.0317398
0.0318973
0.0320644
0.032239
0.0324259
0.0326263
0.032849
0.0330895
0.0333621
0.0336606
0.0340088
0.0343946
0.0348505
0.0353588
0.0359649
0.0366321
0.0374611
0.0383073
0.0394909
0.0405194
0.0422252
0.0435048
0.0458763
0.0475406
0.0508815
0.0529461
0.0576194
0.0604184
0.0664008
0.0698933
0.0792811
0.0297088
0.0297298
0.029762
0.0298004
0.0298403
0.0298772
0.0299107
0.0299407
0.0299694
0.0299986
0.0300313
0.0300682
0.0301105
0.0301579
0.0302098
0.0302652
0.0303236
0.0303838
0.0304459
0.0305093
0.0305747
0.0306416
0.0307114
0.0307836
0.0308597
0.030939
0.0310231
0.031111
0.0312044
0.0313019
0.0314055
0.0315136
0.0316284
0.0317483
0.031876
0.0320101
0.0321533
0.0323054
0.032466
0.0326387
0.0328246
0.0330226
0.033237
0.0334705
0.0337314
0.0340159
0.0343396
0.0346935
0.0351082
0.0355588
0.0361012
0.0366809
0.0373995
0.0381447
0.0391166
0.0400531
0.041419
0.0425481
0.044503
0.0458852
0.0485776
0.0504004
0.0540509
0.0563759
0.0613457
0.0644745
0.07069
0.0748293
0.0836069
0.0303999
0.0303947
0.0304072
0.0304359
0.0304762
0.0305233
0.0305741
0.0306257
0.0306766
0.0307259
0.0307744
0.0308227
0.0308724
0.0309241
0.0309788
0.0310364
0.0310972
0.0311604
0.0312264
0.0312941
0.0313643
0.031436
0.0315104
0.0315867
0.0316663
0.0317484
0.0318348
0.0319244
0.0320194
0.0321185
0.0322242
0.0323349
0.0324535
0.0325785
0.0327131
0.0328562
0.0330108
0.0331774
0.0333556
0.0335499
0.0337612
0.0339891
0.0342378
0.0345112
0.0348165
0.0351518
0.0355308
0.0359482
0.0364305
0.0369567
0.0375838
0.0382492
0.0390802
0.0399191
0.0410422
0.0420834
0.0436518
0.044889
0.0471364
0.0486022
0.0516956
0.0536254
0.057666
0.0602467
0.0654897
0.06914
0.0753767
0.0806716
0.0886333
0.0311331
0.0311377
0.0311486
0.0311704
0.031203
0.0312455
0.0312973
0.0313564
0.0314208
0.0314882
0.0315572
0.0316264
0.0316957
0.0317648
0.0318344
0.0319044
0.0319755
0.0320474
0.0321209
0.0321952
0.0322715
0.0323487
0.0324283
0.0325093
0.0325935
0.0326799
0.0327708
0.0328648
0.0329648
0.0330692
0.0331814
0.0332997
0.0334277
0.0335639
0.0337119
0.033871
0.0340441
0.0342326
0.0344357
0.0346592
0.0349029
0.0351675
0.035457
0.0357755
0.0361308
0.0365208
0.0369596
0.0374448
0.0379974
0.0386085
0.0393222
0.0400886
0.0410378
0.0419859
0.0432788
0.0444324
0.0462366
0.0475866
0.0501658
0.0517173
0.0552576
0.0573026
0.0618097
0.0645028
0.070447
0.073934
0.0817398
0.0859114
0.0988646
0.0320312
0.0320554
0.0320772
0.0321026
0.0321326
0.0321685
0.0322121
0.0322641
0.0323248
0.032393
0.0324677
0.0325468
0.0326293
0.0327135
0.0327991
0.0328848
0.032971
0.0330567
0.0331427
0.0332282
0.0333145
0.0334008
0.0334889
0.0335778
0.03367
0.0337642
0.0338634
0.0339661
0.0340759
0.034191
0.0343154
0.0344473
0.0345909
0.0347446
0.0349124
0.0350938
0.0352915
0.0355076
0.0357407
0.0359983
0.0362789
0.0365835
0.0369184
0.037284
0.0376958
0.0381417
0.0386502
0.0392063
0.0398414
0.0405477
0.0413563
0.0422472
0.0433131
0.0444075
0.0458612
0.0471736
0.0492038
0.0507233
0.0536189
0.0553312
0.0592821
0.0615463
0.0664973
0.0694541
0.0759496
0.0799102
0.0882078
0.0932574
0.107348
0.0330385
0.0330781
0.0331142
0.0331518
0.0331901
0.0332298
0.0332725
0.03332
0.0333739
0.0334349
0.0335037
0.0335794
0.0336618
0.0337495
0.0338421
0.0339379
0.0340367
0.034137
0.0342392
0.0343419
0.0344461
0.0345506
0.034657
0.0347643
0.0348749
0.0349874
0.0351051
0.0352262
0.0353551
0.0354894
0.0356342
0.0357871
0.0359531
0.0361306
0.0363238
0.0365331
0.0367601
0.0370094
0.0372767
0.0375745
0.0378962
0.0382483
0.0386347
0.0390556
0.0395343
0.0400431
0.0406384
0.0412689
0.0420101
0.042812
0.0437402
0.0447595
0.0459609
0.0472181
0.0488463
0.0503512
0.0526143
0.0543646
0.0575662
0.0595153
0.0639122
0.0664184
0.0719007
0.0752013
0.0823445
0.0870563
0.0953439
0.103085
0.115563
0.0343159
0.034364
0.0344094
0.0344573
0.034506
0.0345545
0.0346037
0.0346544
0.0347081
0.0347657
0.0348287
0.0348972
0.0349722
0.0350531
0.0351402
0.0352324
0.03533
0.0354315
0.0355375
0.0356466
0.0357597
0.0358754
0.0359954
0.0361184
0.0362466
0.0363785
0.0365176
0.0366615
0.0368149
0.036975
0.0371474
0.037329
0.0375258
0.0377357
0.0379631
0.0382097
0.0384746
0.0387678
0.0390773
0.0394286
0.0397978
0.0402135
0.0406558
0.0411504
0.0416989
0.0422876
0.0429752
0.043691
0.0445505
0.0454532
0.0465193
0.0476777
0.0490332
0.0504827
0.0523029
0.0540447
0.0565651
0.0585998
0.0621288
0.0643882
0.069287
0.0720679
0.0782128
0.0818813
0.0900871
0.0947558
0.106004
0.112205
0.135055
0.0357846
0.0358417
0.0358956
0.035953
0.036012
0.0360714
0.0361313
0.0361918
0.0362539
0.0363179
0.0363853
0.0364564
0.0365327
0.0366142
0.036702
0.0367957
0.0368959
0.037002
0.0371143
0.037232
0.0373558
0.0374845
0.0376196
0.0377596
0.0379069
0.0380597
0.0382214
0.0383898
0.0385698
0.038758
0.038961
0.0391748
0.0394065
0.0396534
0.03992
0.0402095
0.0405173
0.0408616
0.0412163
0.0416314
0.0420462
0.0425414
0.0430308
0.0436223
0.0442255
0.0449242
0.0456886
0.0465219
0.0474947
0.0485279
0.0497441
0.051076
0.0526037
0.0543022
0.0563216
0.0583799
0.0611642
0.0635681
0.0674379
0.070119
0.0755608
0.0786613
0.0856428
0.0898526
0.0990584
0.104597
0.118134
0.126566
0.15731
0.037625
0.0376922
0.0377549
0.0378209
0.0378886
0.0379569
0.0380261
0.0380959
0.0381671
0.0382395
0.0383138
0.0383905
0.0384703
0.0385538
0.038642
0.0387354
0.038835
0.038941
0.039054
0.0391745
0.0393026
0.0394386
0.0395832
0.0397361
0.0398988
0.0400704
0.0402536
0.0404465
0.0406538
0.0408719
0.041108
0.0413567
0.0416273
0.0419139
0.0422252
0.0425606
0.0429178
0.0433173
0.0437235
0.0442112
0.0446738
0.0452672
0.0457977
0.0465209
0.0471607
0.0480237
0.0488387
0.0498583
0.0509234
0.0521578
0.0535212
0.0550946
0.0567974
0.058837
0.0610238
0.0635482
0.0665228
0.069492
0.0736182
0.076973
0.0828922
0.0864187
0.0946418
0.0994436
0.110154
0.117113
0.134967
0.146741
0.18706
0.039719
0.0398005
0.0398766
0.0399563
0.0400376
0.0401194
0.040202
0.0402859
0.0403713
0.0404586
0.040548
0.0406399
0.0407347
0.0408328
0.0409349
0.0410417
0.0411536
0.0412718
0.0413964
0.0415288
0.0416688
0.0418178
0.0419761
0.0421444
0.042324
0.0425145
0.0427191
0.0429354
0.0431698
0.0434163
0.0436867
0.0439685
0.0442824
0.0446069
0.0449718
0.0453502
0.0457713
0.0462219
0.0466997
0.0472564
0.0477888
0.048483
0.0490725
0.0499461
0.0506273
0.0517001
0.0525534
0.0538309
0.054971
0.0564812
0.0579996
0.0598612
0.0617875
0.064202
0.0666009
0.0696908
0.0728395
0.0765792
0.0808816
0.0852946
0.0913834
0.0960933
0.105537
0.111212
0.124854
0.134606
0.159227
0.17687
0.220034
0.0423402
0.042432
0.0425186
0.0426103
0.0427042
0.0427991
0.0428949
0.0429923
0.0430912
0.0431925
0.043296
0.0434024
0.0435116
0.0436246
0.0437416
0.0438636
0.0439908
0.0441247
0.0442653
0.0444141
0.0445715
0.0447383
0.0449158
0.045104
0.0453055
0.0455187
0.045749
0.045991
0.0462568
0.0465317
0.046842
0.0471541
0.04752
0.0478747
0.0483086
0.0487156
0.0492268
0.0497049
0.0502962
0.0508872
0.0515498
0.0523014
0.0530263
0.0540067
0.0548084
0.0560665
0.057018
0.0585675
0.0598133
0.0616432
0.0633566
0.0655227
0.0678017
0.0705242
0.0733806
0.0769281
0.0805426
0.0849614
0.089794
0.0952277
0.101657
0.108635
0.118766
0.126817
0.146763
0.160804
0.196286
0.219783
0.318788
0.0453727
0.0454729
0.0455694
0.0456738
0.0457825
0.0458942
0.0460081
0.046125
0.0462444
0.0463674
0.0464931
0.0466227
0.0467554
0.0468926
0.0470335
0.0471801
0.0473316
0.0474902
0.0476555
0.0478296
0.0480124
0.0482059
0.0484107
0.0486278
0.0488598
0.0491046
0.0493706
0.049647
0.0499564
0.0502672
0.0506333
0.0509798
0.0514202
0.0518036
0.052339
0.0527631
0.0534122
0.053891
0.0546675
0.0552403
0.0561393
0.0568592
0.0578711
0.0588265
0.059944
0.061233
0.0624898
0.0641896
0.0657028
0.067828
0.0698238
0.072358
0.0750809
0.078139
0.0816841
0.0855991
0.0900306
0.095043
0.100887
0.10716
0.115217
0.124849
0.135882
0.153861
0.175117
0.201722
0.248483
0.309063
0.402972
0.0492544
0.0493597
0.0494611
0.0495721
0.0496894
0.0498114
0.0499374
0.0500683
0.0502036
0.0503443
0.0504895
0.0506405
0.0507961
0.0509582
0.0511252
0.0512997
0.0514798
0.0516687
0.0518646
0.0520708
0.0522859
0.0525133
0.0527525
0.0530053
0.0532749
0.0535572
0.0538664
0.0541811
0.0545432
0.0548912
0.0553247
0.0557041
0.0562342
0.0566417
0.0572974
0.0577322
0.0585425
0.0590135
0.0600085
0.0605448
0.0617384
0.0623831
0.0637932
0.0646263
0.0662581
0.0674086
0.0692634
0.0709035
0.073001
0.0752893
0.0777603
0.080752
0.0838963
0.0875917
0.0917303
0.0963127
0.101646
0.107603
0.114727
0.122745
0.134173
0.145923
0.166868
0.188708
0.223176
0.26746
0.348498
0.428593
0.547674
0.053861
0.0539772
0.0540906
0.054217
0.0543521
0.0544945
0.0546426
0.0547983
0.0549597
0.055129
0.0553039
0.055487
0.0556756
0.0558726
0.0560756
0.0562877
0.0565066
0.0567356
0.0569728
0.0572216
0.0574808
0.057753
0.0580397
0.0583393
0.0586615
0.058992
0.0593616
0.0597247
0.0601587
0.0605538
0.0610755
0.0615001
0.0621376
0.0625912
0.0633733
0.0638631
0.0648143
0.065364
0.0665133
0.0671581
0.0685285
0.069307
0.0709541
0.0719126
0.0739072
0.0751403
0.0775384
0.079223
0.0820239
0.0844334
0.0876272
0.0910359
0.0947723
0.0993153
0.104025
0.109758
0.116299
0.12364
0.133736
0.14479
0.161615
0.181947
0.211356
0.247318
0.303872
0.384734
0.487875
0.588428
0.683605
0.0597746
0.0599139
0.0600415
0.0601798
0.0603249
0.060478
0.0606376
0.0608066
0.0609834
0.0611703
0.0613657
0.0615714
0.0617859
0.0620108
0.0622452
0.0624903
0.062746
0.063013
0.0632921
0.0635833
0.0638897
0.0642078
0.0645475
0.0648954
0.0652781
0.065658
0.0660987
0.0665112
0.0670308
0.0674758
0.0680997
0.0685804
0.0693327
0.0698647
0.0707576
0.0713803
0.0724089
0.0731955
0.074352
0.0753823
0.0766698
0.0780098
0.0794983
0.0811723
0.0830045
0.0850428
0.0873914
0.0898623
0.0928832
0.095956
0.0997562
0.103747
0.108431
0.113828
0.119649
0.127423
0.135423
0.147394
0.161306
0.179822
0.207616
0.23826
0.286683
0.349698
0.442106
0.550927
0.66219
0.741394
0.787734
0.067258
0.0672957
0.067401
0.0675518
0.0677257
0.0679144
0.0681145
0.0683262
0.0685487
0.0687829
0.0690284
0.0692854
0.0695541
0.0698342
0.0701267
0.0704304
0.070748
0.0710767
0.0714218
0.0717772
0.0721541
0.0725379
0.0729539
0.0733674
0.0738346
0.0742782
0.0748149
0.0752886
0.0759189
0.0764258
0.0771742
0.0777297
0.0786095
0.0792557
0.0802526
0.0810754
0.0821452
0.0832804
0.08437
0.0859373
0.0870474
0.0891053
0.0903652
0.0928799
0.0945336
0.0974918
0.0997683
0.103264
0.106355
0.110592
0.11475
0.120042
0.125794
0.13277
0.14133
0.152034
0.165619
0.18488
0.20706
0.241638
0.282786
0.338199
0.417761
0.520425
0.635038
0.741955
0.813391
0.851496
0.863946
0.0766737
0.076794
0.0769305
0.0770949
0.0772769
0.077473
0.0776833
0.0779079
0.0781474
0.078401
0.0786701
0.0789529
0.0792519
0.0795641
0.0798939
0.0802367
0.0805993
0.0809747
0.0813736
0.0817844
0.082226
0.082675
0.0831695
0.0836585
0.0842214
0.0847509
0.0854036
0.0859743
0.0867415
0.0873606
0.0882637
0.0889553
0.0899994
0.0908207
0.0919798
0.0930396
0.0942623
0.0957133
0.0969519
0.098896
0.100238
0.102619
0.104376
0.106988
0.109615
0.112374
0.116128
0.119352
0.124289
0.128567
0.135048
0.141214
0.150593
0.160426
0.175678
0.193196
0.218609
0.250052
0.292297
0.348236
0.418776
0.509325
0.627254
0.746208
0.839707
0.899456
0.917228
0.929583
0.931013
0.0889126
0.0888257
0.0889958
0.0892318
0.0895359
0.0898597
0.0901872
0.0905194
0.0908622
0.0912167
0.0915881
0.0919733
0.0923773
0.0927952
0.0932325
0.0936842
0.0941548
0.0946421
0.0951473
0.0956737
0.0962177
0.0967876
0.0973799
0.0979975
0.0986541
0.0993234
0.100067
0.100793
0.101649
0.102446
0.103438
0.104328
0.105478
0.1065
0.107826
0.109054
0.110564
0.112104
0.113792
0.115739
0.117727
0.120043
0.12269
0.125245
0.129014
0.131983
0.136984
0.141292
0.147558
0.154531
0.16367
0.174869
0.191351
0.209422
0.239804
0.269461
0.320366
0.371685
0.449688
0.535765
0.643708
0.766471
0.883107
0.960476
1.00646
1.02282
1.02391
1.02668
1.01828
0.107715
0.107852
0.106841
0.107305
0.106643
0.106318
0.106363
0.106579
0.106884
0.10724
0.107635
0.108058
0.108508
0.108984
0.109481
0.110012
0.110552
0.111145
0.111724
0.112387
0.113005
0.113748
0.114409
0.115243
0.115959
0.116891
0.117682
0.118724
0.119612
0.120781
0.121789
0.123108
0.124279
0.125758
0.127183
0.128824
0.130616
0.132471
0.13468
0.136942
0.139575
0.142469
0.145756
0.149501
0.154002
0.159168
0.165631
0.173714
0.18385
0.197476
0.216137
0.239066
0.272692
0.310633
0.365907
0.427089
0.510462
0.599736
0.713678
0.826499
0.952103
1.04691
1.10833
1.12272
1.1257
1.1262
1.12415
1.12234
1.10596
0.126709
0.126845
0.127074
0.127407
0.127828
0.128257
0.12875
0.129276
0.129823
0.130391
0.130979
0.131598
0.132231
0.13291
0.133583
0.134331
0.135034
0.135864
0.136585
0.137512
0.13824
0.139277
0.140011
0.141164
0.141922
0.143188
0.144003
0.145386
0.146284
0.147818
0.148807
0.150559
0.151673
0.153682
0.155071
0.157283
0.159209
0.161585
0.164274
0.167163
0.170672
0.174856
0.17963
0.186155
0.193643
0.204358
0.217178
0.235834
0.259124
0.291775
0.332751
0.384331
0.450689
0.526344
0.622781
0.723796
0.842492
0.957723
1.08371
1.18319
1.2508
1.28058
1.29088
1.29381
1.29435
1.29187
1.27067
1.25432
1.20005
0.159145
0.159999
0.160182
0.160409
0.159112
0.15986
0.159047
0.158734
0.158928
0.159382
0.159956
0.160636
0.161339
0.162141
0.16291
0.163825
0.164633
0.165674
0.166503
0.167688
0.168532
0.169871
0.170751
0.172225
0.173208
0.174776
0.175953
0.177596
0.179031
0.180826
0.182495
0.184654
0.186494
0.189243
0.191382
0.194789
0.19782
0.202009
0.20687
0.212669
0.22034
0.229886
0.242259
0.258655
0.279591
0.30782
0.343467
0.391974
0.450307
0.524673
0.609058
0.710828
0.822109
0.943088
1.06886
1.19084
1.30825
1.41243
1.48295
1.52226
1.5393
1.55127
1.55475
1.54848
1.52729
1.48764
1.44753
1.41568
1.35006
0.201438
0.20134
0.201429
0.201809
0.202237
0.20282
0.20349
0.204269
0.205148
0.206128
0.207178
0.208322
0.209506
0.2108
0.212096
0.213547
0.214939
0.216563
0.218042
0.219858
0.221439
0.223454
0.225197
0.227391
0.229424
0.231755
0.234251
0.236712
0.239772
0.242485
0.246077
0.249431
0.253516
0.258084
0.263357
0.270929
0.279853
0.292416
0.308002
0.328072
0.353818
0.386042
0.426934
0.477261
0.540227
0.616014
0.70752
0.813219
0.931816
1.05981
1.19434
1.33335
1.46603
1.59086
1.70438
1.80039
1.87148
1.91403
1.93733
1.96523
1.97487
1.95419
1.91798
1.85995
1.81902
1.77657
1.74246
1.67777
1.62311
0.309743
0.311529
0.31352
0.31563
0.317923
0.320371
0.322957
0.325687
0.328569
0.331594
0.334786
0.338114
0.341622
0.345268
0.349112
0.353112
0.357328
0.361737
0.366346
0.371233
0.376303
0.381753
0.387381
0.393509
0.399918
0.406905
0.414363
0.422404
0.43132
0.441409
0.45277
0.465688
0.48273
0.505202
0.532987
0.568295
0.611813
0.664787
0.72718
0.799683
0.883309
0.978028
1.08584
1.20612
1.34018
1.48448
1.63695
1.79208
1.94381
2.08824
2.22398
2.34304
2.45262
2.53827
2.59887
2.64319
2.70018
2.72055
2.68932
2.63075
2.56193
2.48365
2.3967
2.29855
2.20034
2.08093
1.977
1.84809
1.75775
1.11615
1.12945
1.14331
1.15766
1.17242
1.18764
1.20318
1.21912
1.23536
1.25192
1.26878
1.28588
1.3033
1.32091
1.33887
1.35706
1.37568
1.39446
1.41379
1.43327
1.45338
1.47381
1.495
1.51669
1.53944
1.56299
1.58801
1.6114
1.64563
1.69539
1.75866
1.83611
1.92543
2.02307
2.12645
2.23609
2.34945
2.46812
2.59054
2.71794
2.85038
2.99066
3.13988
3.29387
3.44569
3.59225
3.72963
3.85412
3.9628
4.05345
4.12414
4.17708
4.22041
4.281
4.27168
4.20474
4.10302
3.97968
3.82985
3.65396
3.44587
3.20122
2.90664
2.56256
2.20362
1.86457
1.57743
1.36628
1.20792
8.29534
8.29251
8.28912
8.28515
8.28056
8.27534
8.26942
8.26282
8.25548
8.24738
8.23851
8.22882
8.21832
8.20696
8.19474
8.18165
8.16767
8.15277
8.13698
8.12016
8.10255
8.08367
8.06439
8.04308
8.02254
7.99839
7.97641
7.95164
7.92599
7.90043
7.87816
7.84644
7.82674
7.7873
7.7394
7.68821
7.63519
7.58015
7.52282
7.46292
7.40018
7.33442
7.26548
7.19342
7.11838
7.04066
6.96071
6.87922
6.79705
6.7153
6.63483
6.55707
6.48297
6.4096
6.34145
6.28376
6.23801
6.20138
6.16976
6.14039
6.11228
6.08499
6.05862
6.03321
6.00897
5.98622
5.96499
5.94519
5.92694
0.029115
0.0291037
0.0290915
0.0290677
0.0290419
0.0289987
0.0289618
0.0289417
0.0289425
0.0289468
0.0289373
0.0289297
0.0289259
0.0289126
0.0288206
0.0287807
0.0287831
0.0287752
0.0287338
0.028664
0.0287285
0.0287631
0.0286819
0.0286466
0.0285851
0.0285167
0.0285393
0.0285493
0.0285658
0.0285147
0.0284994
0.028484
0.0284975
0.0284358
0.0284129
0.0283758
0.0283663
0.0283354
0.0282897
0.0282666
0.0282364
0.0282456
0.0282245
0.0281764
0.0281687
0.028129
0.0280986
0.0280774
0.0280342
0.0279618
0.0279083
0.0279016
0.0279151
0.027951
0.0280097
0.0280182
0.0280009
0.0279607
0.027917
0.0293707
0.0293522
0.0293315
0.0293144
0.0292922
0.029276
0.0292671
0.0292628
0.029262
0.0292573
0.0292428
0.0292175
0.0291755
0.0291107
0.0290518
0.0290431
0.0290538
0.0290397
0.0289669
0.0289541
0.0290062
0.0290049
0.0289078
0.0288794
0.0287972
0.0287531
0.0287713
0.0287833
0.0287907
0.0287308
0.02872
0.0287069
0.0287107
0.0286572
0.0286322
0.0285972
0.0285788
0.0285554
0.0285196
0.028478
0.0284421
0.0284466
0.0284395
0.0284147
0.0283832
0.0283586
0.0283293
0.0283173
0.0282982
0.0282564
0.0281876
0.0281342
0.0281029
0.0281069
0.0281328
0.0281809
0.028221
0.0282447
0.0282452
0.029689
0.0296707
0.0296507
0.0296404
0.0296282
0.0296216
0.0296146
0.0296171
0.0296208
0.029616
0.0295758
0.0295308
0.02947
0.0294142
0.0293909
0.0293952
0.0293949
0.0293156
0.029283
0.0293086
0.0293318
0.029307
0.0291985
0.029161
0.0290665
0.0290407
0.0290574
0.0290763
0.0290609
0.029003
0.028994
0.0289801
0.0289772
0.0289326
0.0289045
0.0288701
0.0288465
0.0288235
0.0287951
0.0287573
0.0287034
0.0286993
0.0286993
0.0286901
0.0286682
0.0286402
0.0286099
0.0285991
0.0285944
0.0285781
0.0285444
0.0284845
0.0284365
0.0283916
0.02839
0.0283994
0.0284315
0.0284686
0.028505
0.0301098
0.0301096
0.0301033
0.0301103
0.0300982
0.0301028
0.0301057
0.0301037
0.0300638
0.0300174
0.0299565
0.0298951
0.0298432
0.0298172
0.029806
0.0297996
0.0297516
0.0296911
0.0296899
0.0297143
0.029717
0.0296413
0.0295286
0.0294887
0.0294003
0.0293909
0.0294049
0.0294172
0.0293944
0.02933
0.0293225
0.0293039
0.0292934
0.0292545
0.0292238
0.0291912
0.0291629
0.0291397
0.029116
0.0290852
0.0290283
0.0290002
0.0290018
0.0290007
0.02899
0.0289715
0.0289413
0.0289173
0.0289235
0.0289232
0.0289098
0.0288807
0.0288326
0.028786
0.0287445
0.0287323
0.028732
0.0287383
0.0287587
0.0307064
0.0306957
0.0306884
0.0306703
0.0306411
0.030613
0.0305702
0.0305232
0.0304691
0.0304209
0.0303753
0.0303425
0.0303256
0.0303171
0.0303072
0.0302795
0.0301935
0.030165
0.0301713
0.030173
0.0301452
0.0300377
0.0299422
0.0298885
0.0298105
0.0298095
0.0298145
0.0298268
0.0297845
0.0297232
0.0297137
0.0296924
0.02968
0.0296471
0.0296151
0.0295834
0.0295522
0.0295248
0.0295014
0.0294767
0.0294358
0.0293818
0.0293756
0.0293801
0.0293785
0.0293713
0.029356
0.0293317
0.0293264
0.0293257
0.0293398
0.0293356
0.0293121
0.0292722
0.0292339
0.0292008
0.0291796
0.0291794
0.0291815
0.0313044
0.0312871
0.031261
0.0312408
0.0312059
0.0311755
0.0311338
0.031097
0.0310574
0.0310222
0.0309885
0.0309613
0.0309341
0.0309004
0.0308526
0.0307795
0.0307282
0.0307318
0.0307394
0.0307335
0.030648
0.0305204
0.0304234
0.0303596
0.0302968
0.030305
0.0303143
0.0303123
0.0302588
0.0301945
0.0301826
0.0301553
0.0301349
0.030103
0.0300695
0.0300386
0.0300097
0.0299829
0.0299601
0.0299397
0.0299095
0.0298608
0.0298207
0.0298169
0.0298302
0.0298338
0.0298263
0.0298074
0.0297928
0.0298054
0.029813
0.029812
0.0298317
0.029813
0.029776
0.0297374
0.0297128
0.0296955
0.0296999
0.0321183
0.0320785
0.0320284
0.0319837
0.0319255
0.0318753
0.0318186
0.0317726
0.0317286
0.0316976
0.0316699
0.031645
0.0316083
0.0315611
0.0314962
0.031444
0.0314207
0.031419
0.0313929
0.0313306
0.0312053
0.0310755
0.0309936
0.0309367
0.0308899
0.0308958
0.0308894
0.0308809
0.0308131
0.0307523
0.0307359
0.0307071
0.0306882
0.0306601
0.0306282
0.0305964
0.030566
0.0305374
0.0305128
0.0304946
0.0304737
0.030439
0.0303941
0.0303671
0.0303719
0.0303756
0.030405
0.03039
0.0304006
0.0304059
0.0303936
0.0303902
0.0303974
0.0304147
0.0304439
0.0304293
0.0304196
0.0303922
0.0304071
0.0329239
0.0328762
0.0328242
0.0327856
0.032742
0.0327149
0.0326851
0.0326667
0.0326434
0.0326133
0.0325702
0.0325045
0.0324206
0.0323351
0.0322676
0.0322295
0.0322111
0.0322001
0.032145
0.0320363
0.031891
0.0317768
0.0317091
0.0316407
0.0315949
0.0315976
0.0316041
0.0315747
0.0314908
0.0314288
0.0314083
0.0313716
0.0313418
0.0313103
0.0312783
0.0312482
0.0312221
0.0311973
0.0311751
0.0311581
0.0311419
0.0311182
0.0310823
0.0310433
0.0310218
0.0310177
0.0310274
0.0310718
0.0310628
0.0310612
0.0310724
0.0311105
0.0311174
0.031097
0.0311012
0.0310903
0.0311333
0.0311338
0.0311206
0.0340459
0.0339999
0.0339503
0.0339151
0.0338693
0.0338277
0.0337723
0.0337086
0.0336269
0.0335373
0.0334421
0.0333419
0.0332698
0.0332264
0.0332037
0.0331941
0.0331735
0.0331194
0.03299
0.0328425
0.0327015
0.0326066
0.0325179
0.0324567
0.0324371
0.032441
0.0324174
0.0323651
0.0322788
0.0322214
0.0321936
0.0321576
0.0321345
0.0321074
0.0320765
0.0320454
0.0320175
0.0319927
0.031971
0.0319548
0.0319421
0.0319264
0.0319033
0.0318752
0.0318544
0.0318505
0.0318336
0.0318464
0.031862
0.0318763
0.0318918
0.0319074
0.0319181
0.0319222
0.031937
0.0319434
0.0319673
0.0319747
0.0319902
0.0352549
0.0351944
0.03513
0.035073
0.0349979
0.0349301
0.0348484
0.0347718
0.0346968
0.0346296
0.0345666
0.0345165
0.0344856
0.034441
0.0344017
0.0343494
0.0342581
0.034124
0.0339691
0.0338317
0.033708
0.0336045
0.0335385
0.0334949
0.0334656
0.0334429
0.0334152
0.0333568
0.0332542
0.0331925
0.0331603
0.0331133
0.0330748
0.0330411
0.0330107
0.0329835
0.0329599
0.0329395
0.032922
0.032909
0.0329017
0.0328934
0.0328782
0.0328608
0.0328458
0.0328241
0.0328406
0.0328481
0.0328308
0.0328316
0.0328432
0.0328559
0.0328714
0.0328824
0.0329034
0.0329159
0.0329447
0.0329581
0.0329825
0.0367192
0.0366486
0.0365774
0.0365193
0.0364479
0.0363877
0.0363111
0.0362421
0.0361598
0.0360798
0.0359943
0.0359225
0.0358413
0.0357663
0.0356903
0.0355876
0.0354623
0.0353213
0.0351773
0.0350383
0.0349051
0.0348239
0.0347422
0.0346775
0.0346549
0.0346507
0.0345803
0.0344824
0.03438
0.0343274
0.0342846
0.0342418
0.0342159
0.0341887
0.034159
0.0341302
0.034105
0.0340837
0.0340663
0.034055
0.0340469
0.0340472
0.0340536
0.0340449
0.0340346
0.0340193
0.0340101
0.0339898
0.0339952
0.0340159
0.0340433
0.034069
0.0340979
0.0341194
0.0341501
0.0341685
0.034204
0.0342211
0.0342507
0.0384506
0.0383668
0.0382851
0.0382036
0.0381133
0.0380228
0.0379274
0.0378404
0.0377493
0.0376685
0.0375907
0.0375155
0.0374317
0.0373475
0.0372383
0.0371134
0.0369682
0.0368027
0.0366325
0.0364778
0.0363686
0.0362661
0.0361907
0.0361627
0.0361437
0.0360711
0.0359849
0.0359002
0.0357954
0.0357303
0.0356837
0.0356249
0.035579
0.0355432
0.0355139
0.0354902
0.0354719
0.0354578
0.0354474
0.0354385
0.0354495
0.035445
0.0354175
0.0354433
0.0354495
0.0354919
0.0354972
0.0354482
0.0354148
0.0354123
0.0354338
0.0354622
0.0355005
0.0355319
0.0355747
0.0356019
0.035648
0.035671
0.035708
0.0405126
0.040407
0.0402998
0.0402182
0.040125
0.040044
0.0399608
0.0398803
0.0397919
0.0397039
0.0396092
0.0395018
0.0393871
0.0392563
0.0391125
0.0389403
0.038747
0.0385504
0.0383896
0.0382614
0.0381426
0.0380571
0.037987
0.0379279
0.037852
0.0377888
0.0376794
0.0375486
0.0374273
0.0373761
0.0373157
0.0372674
0.0372406
0.0372139
0.0371852
0.0371586
0.0371371
0.0371216
0.0371101
0.0371162
0.0370745
0.0371333
0.0371422
0.0371074
0.0370949
0.0371182
0.0371404
0.0371414
0.0371424
0.0371557
0.037186
0.0372216
0.0372701
0.0373109
0.0373663
0.0374023
0.0374602
0.0374896
0.0375347
0.043099
0.0429792
0.0428552
0.0427605
0.042648
0.042551
0.0424429
0.0423332
0.0422181
0.0421004
0.0419724
0.0418205
0.0416575
0.0414731
0.0412687
0.0410558
0.040853
0.040684
0.0405457
0.0403986
0.0402851
0.0401756
0.040094
0.0400242
0.0399648
0.0398383
0.0397043
0.0395905
0.0394962
0.0394275
0.0393618
0.0392905
0.03924
0.0392037
0.0391775
0.0391597
0.0391493
0.0391432
0.0391494
0.0391116
0.039161
0.0391334
0.039146
0.0392134
0.0392335
0.0391985
0.0391895
0.0391919
0.0392016
0.0392172
0.0392456
0.0392761
0.039323
0.0393617
0.0394213
0.0394592
0.0395257
0.0395587
0.0396124
0.0461782
0.0460608
0.0459301
0.0458282
0.0457016
0.0455938
0.0454655
0.0453378
0.045189
0.0450282
0.0448349
0.0446245
0.0444076
0.0441854
0.0439724
0.0437752
0.043588
0.0434141
0.0432399
0.0430837
0.0429519
0.04285
0.0427412
0.0426455
0.0424945
0.0423589
0.04221
0.0420541
0.0419154
0.0418551
0.0417763
0.0417244
0.0417003
0.0416751
0.0416474
0.0416237
0.0416075
0.041606
0.0415754
0.0416157
0.0415692
0.0415926
0.0416938
0.041684
0.0416257
0.0416362
0.0416844
0.0417247
0.0417581
0.0417897
0.0418315
0.0418691
0.0419229
0.0419623
0.0420261
0.0420621
0.0421331
0.0421637
0.042221
0.0499621
0.0498417
0.0497156
0.0495939
0.04944
0.0492801
0.0490896
0.0488823
0.0486541
0.0484058
0.0481526
0.0479032
0.0476673
0.0474379
0.0472187
0.0469935
0.0467618
0.0465638
0.0463873
0.046231
0.0461013
0.045938
0.045817
0.0456746
0.0455369
0.0453694
0.0451915
0.045055
0.0449754
0.0449069
0.0448164
0.0447317
0.0446814
0.04465
0.0446319
0.0446238
0.0446265
0.0446085
0.0446627
0.0446056
0.0446794
0.0446657
0.0446484
0.0448312
0.0448694
0.0448328
0.0447514
0.0447571
0.0448141
0.0448594
0.0449036
0.0449341
0.0449819
0.0450103
0.0450689
0.0450941
0.0451634
0.045185
0.0452426
0.0546156
0.0544383
0.0542399
0.0540616
0.0538316
0.0536242
0.0533791
0.053148
0.0529004
0.0526577
0.0524236
0.0521775
0.0519326
0.051676
0.0514214
0.0511626
0.0509439
0.0507501
0.0505468
0.0503638
0.0501485
0.0499847
0.0498121
0.0496124
0.0493941
0.0491761
0.0489866
0.0488091
0.0486545
0.0485701
0.0484725
0.0484227
0.0484079
0.0483868
0.0483594
0.0483424
0.0483285
0.0483441
0.048289
0.0483783
0.048397
0.0483148
0.0484821
0.0484396
0.0484538
0.0487233
0.0487456
0.0487489
0.0486545
0.048663
0.0487264
0.048775
0.048839
0.048873
0.0489411
0.0489649
0.0490398
0.049055
0.0491136
0.0599825
0.0597688
0.0595718
0.0593665
0.0591432
0.0589189
0.0586714
0.0584261
0.0581467
0.0578764
0.0575694
0.0572563
0.056941
0.0566327
0.0563416
0.0560691
0.0558109
0.0555448
0.0552977
0.0550446
0.0548254
0.0545987
0.0543635
0.0541377
0.0539196
0.05371
0.0535013
0.0533461
0.0532797