/*--------------------------------*- C++ -*----------------------------------*\
| =========                 |                                                 |
| \\      /  F ield         | OpenFOAM: The Open Source CFD Toolbox           |
|  \\    /   O peration     | Version:  2312                                  |
|   \\  /    A nd           | Website:  www.openfoam.com                      |
|    \\/     M anipulation  |                                                 |
\*---------------------------------------------------------------------------*/
FoamFile
{
    version     2.0;
    format      ascii;
    arch        "LSB;label=32;scalar=64";
    class       volScalarField;
    location    "1200";
    object      p;
}
// * * * * * * * * * * * * * * * * * * * * * * * * * * * * * * * * * * * * * //

dimensions      [0 2 -2 0 0 0 0];

internalField   nonuniform List<scalar> 
76025
(
0.000232432
0.00022239
0.000212289
0.000202145
0.000192117
0.000181955
0.000171448
0.000161127
0.000150493
0.00014003
0.000129606
0.000119115
0.000108525
9.79847e-05
8.7369e-05
7.6833e-05
6.64744e-05
5.59502e-05
4.55352e-05
3.52733e-05
2.5136e-05
1.4849e-05
4.90875e-06
-4.73299e-06
-1.42928e-05
-2.36258e-05
-3.29765e-05
-4.208e-05
-5.0679e-05
-5.94831e-05
-6.77739e-05
-7.54349e-05
-8.28659e-05
-8.99372e-05
-9.66987e-05
-0.000103091
-0.000108914
-0.000114827
-0.000119889
-0.000124373
-0.000128207
-0.000131638
-0.000135015
-0.000137273
-0.000139027
-0.000140132
-0.0001409
-0.00014068
-0.000139598
-0.000138142
-0.000136147
-0.00013331
-0.000129694
-0.000125227
-0.000119879
-0.000113226
-0.000106543
-9.8492e-05
-8.98211e-05
-8.05918e-05
-7.05611e-05
-5.89587e-05
-4.61783e-05
-3.3208e-05
-1.92251e-05
-3.26529e-06
1.22095e-05
2.82746e-05
4.81673e-05
0.000230989
0.000220544
0.000210082
0.000199479
0.000188781
0.000177968
0.000167111
0.000156196
0.000145193
0.000134181
0.000123161
0.000112119
0.000101045
8.99569e-05
7.89151e-05
6.79353e-05
5.6942e-05
4.60233e-05
3.50977e-05
2.43214e-05
1.3588e-05
3.0174e-06
-7.35242e-06
-1.74998e-05
-2.75189e-05
-3.73964e-05
-4.70827e-05
-5.64339e-05
-6.55216e-05
-7.43589e-05
-8.28568e-05
-9.1113e-05
-9.90156e-05
-0.000106475
-0.000113635
-0.000120358
-0.000126682
-0.00013257
-0.000137885
-0.000142734
-0.000147
-0.000150791
-0.000154068
-0.000156613
-0.000158619
-0.000160016
-0.000160824
-0.000160827
-0.000160145
-0.000158927
-0.000157084
-0.000154449
-0.000151018
-0.000146769
-0.00014164
-0.000135595
-0.000128925
-0.000121316
-0.000112909
-0.000103749
-9.37948e-05
-8.26281e-05
-7.03567e-05
-5.74164e-05
-4.35596e-05
-2.85098e-05
-1.30028e-05
3.08324e-06
2.12566e-05
0.000228685
0.000217795
0.000206851
0.000195713
0.000184424
0.000173063
0.000161648
0.000150171
0.000138641
0.000127068
0.000115471
0.00010386
9.22312e-05
8.06061e-05
6.90182e-05
5.74531e-05
4.59323e-05
3.44649e-05
2.30666e-05
1.17573e-05
5.7426e-07
-1.04513e-05
-2.13143e-05
-3.20001e-05
-4.25098e-05
-5.28275e-05
-6.28927e-05
-7.26856e-05
-8.22083e-05
-9.14305e-05
-0.000100373
-0.000109009
-0.000117262
-0.000125113
-0.000132568
-0.000139596
-0.000146179
-0.000152296
-0.000157927
-0.000163045
-0.000167602
-0.000171606
-0.000175059
-0.000177922
-0.000180187
-0.00018183
-0.00018284
-0.000183169
-0.000182817
-0.000181816
-0.000180143
-0.000177726
-0.000174529
-0.000170529
-0.000165693
-0.000160004
-0.000153537
-0.000146239
-0.000138109
-0.000129166
-0.000119352
-0.000108529
-9.67251e-05
-8.40765e-05
-7.05425e-05
-5.60623e-05
-4.0813e-05
-2.50373e-05
-7.72263e-06
0.000226053
0.000214635
0.000203141
0.000191439
0.000179576
0.000167621
0.000155608
0.000143548
0.000131444
0.000119298
0.000107121
9.49239e-05
8.27202e-05
7.05256e-05
5.83586e-05
4.62295e-05
3.41542e-05
2.2145e-05
1.02211e-05
-1.59724e-06
-1.32852e-05
-2.48269e-05
-3.62053e-05
-4.73972e-05
-5.8383e-05
-6.91464e-05
-7.96644e-05
-8.99153e-05
-9.98783e-05
-0.000109536
-0.000118874
-0.000127866
-0.000136481
-0.00014469
-0.000152477
-0.000159831
-0.000166732
-0.000173161
-0.00017909
-0.000184486
-0.000189326
-0.00019361
-0.000197338
-0.000200483
-0.000203019
-0.000204934
-0.000206215
-0.000206832
-0.000206767
-0.000206022
-0.000204587
-0.000202423
-0.00019949
-0.000195764
-0.000191223
-0.000185856
-0.000179684
-0.000172694
-0.00016487
-0.000156205
-0.000146671
-0.000136212
-0.000124827
-0.000112569
-9.94381e-05
-8.54473e-05
-7.0659e-05
-5.54227e-05
-3.8896e-05
0.00022325
0.000211252
0.000199178
0.000186887
0.000174427
0.000161863
0.000149237
0.000136566
0.000123849
0.00011109
9.82993e-05
8.54922e-05
7.26857e-05
5.98946e-05
4.71335e-05
3.44172e-05
2.17595e-05
9.17692e-06
-3.31243e-06
-1.56881e-05
-2.79303e-05
-4.00187e-05
-5.19316e-05
-6.36474e-05
-7.51461e-05
-8.64096e-05
-9.74175e-05
-0.000108147
-0.000118576
-0.000128686
-0.000138457
-0.000147866
-0.000156888
-0.000165498
-0.000173678
-0.000181411
-0.000188678
-0.000195454
-0.000201711
-0.000207427
-0.000212588
-0.000217186
-0.000221215
-0.000224655
-0.000227486
-0.000229692
-0.000231258
-0.000232163
-0.000232388
-0.000231924
-0.000230759
-0.000228866
-0.000226215
-0.000222784
-0.000218555
-0.000213518
-0.000207674
-0.000201014
-0.000193526
-0.000185199
-0.000176014
-0.000165946
-0.000154993
-0.000143187
-0.000130533
-0.000117065
-0.000102825
-8.81776e-05
-7.24123e-05
0.00022015
0.000207531
0.000194836
0.000181913
0.000168813
0.000155606
0.000142335
0.000129016
0.00011565
0.000102239
8.8798e-05
7.53434e-05
6.18934e-05
4.84635e-05
3.50684e-05
2.17232e-05
8.44389e-06
-4.75176e-06
-1.7845e-05
-3.08161e-05
-4.36445e-05
-5.63089e-05
-6.8788e-05
-8.10608e-05
-9.31066e-05
-0.000104905
-0.000116434
-0.000127672
-0.000138597
-0.000149188
-0.000159424
-0.000169282
-0.00017874
-0.000187773
-0.000196363
-0.000204491
-0.000212134
-0.000219269
-0.000225873
-0.000231929
-0.000237422
-0.000242344
-0.000246687
-0.000250437
-0.000253574
-0.000256083
-0.000257948
-0.000259154
-0.000259682
-0.000259519
-0.000258651
-0.000257057
-0.000254716
-0.000251608
-0.000247716
-0.00024303
-0.000237544
-0.000231251
-0.000224141
-0.000216203
-0.000207425
-0.000197797
-0.000187317
-0.00017601
-0.000163886
-0.000150991
-0.000137342
-0.00012327
-0.000108242
0.000216621
0.000203345
0.000189986
0.000176386
0.0001626
0.000148704
0.000134744
0.000120736
0.000106682
9.25843e-05
7.84559e-05
6.43156e-05
5.01824e-05
3.60739e-05
2.2006e-05
7.9952e-06
-5.94115e-06
-1.97845e-05
-3.35154e-05
-4.71137e-05
-6.05588e-05
-7.38295e-05
-8.69044e-05
-9.9762e-05
-0.00011238
-0.000124738
-0.000136813
-0.000148582
-0.000160025
-0.000171118
-0.000181839
-0.000192167
-0.000202079
-0.000211553
-0.000220569
-0.000229107
-0.000237145
-0.000244661
-0.000251635
-0.00025805
-0.000263894
-0.000269159
-0.000273837
-0.000277915
-0.000281377
-0.000284209
-0.000286395
-0.000287921
-0.000288773
-0.000288935
-0.000288391
-0.000287127
-0.000285124
-0.000282366
-0.000278839
-0.000274534
-0.000269441
-0.000263555
-0.000256867
-0.000249369
-0.000241055
-0.000231921
-0.000221968
-0.000211215
-0.000199678
-0.000187418
-0.000174379
-0.00016091
-0.000146353
0.000212596
0.000198627
0.000184567
0.000170249
0.000155735
0.000141106
0.000126412
0.000111673
9.68897e-05
8.2064e-05
6.72089e-05
5.23439e-05
3.74896e-05
2.26649e-05
7.88731e-06
-6.82572e-06
-2.14558e-05
-3.59836e-05
-5.03888e-05
-6.46507e-05
-7.87479e-05
-9.26589e-05
-0.000106362
-0.000119834
-0.000133054
-0.000145999
-0.000158646
-0.000170972
-0.000182956
-0.000194575
-0.000205806
-0.000216627
-0.000227016
-0.000236952
-0.000246415
-0.000255385
-0.000263839
-0.000271757
-0.00027912
-0.000285913
-0.000292125
-0.000297751
-0.000302783
-0.000307208
-0.000311015
-0.000314187
-0.000316714
-0.00031858
-0.000319775
-0.000320284
-0.000320093
-0.000319186
-0.000317551
-0.000315175
-0.000312046
-0.000308154
-0.000303494
-0.000298057
-0.000291839
-0.000284836
-0.000277043
-0.000268462
-0.000259099
-0.00024897
-0.000238097
-0.000226544
-0.000214203
-0.000201447
-0.000187318
0.000208008
0.000193306
0.000178504
0.000163428
0.000148145
0.000132741
0.000117271
0.000101756
8.61975e-05
7.05984e-05
5.49721e-05
3.93392e-05
2.37214e-05
8.1389e-06
-7.38982e-06
-2.28464e-05
-3.82114e-05
-5.34646e-05
-6.85845e-05
-8.35494e-05
-9.83372e-05
-0.000112925
-0.000127292
-0.000141413
-0.000155266
-0.000168828
-0.000182077
-0.000194988
-0.00020754
-0.000219709
-0.000231474
-0.000242811
-0.000253699
-0.000264117
-0.000274046
-0.000283466
-0.000292354
-0.000300691
-0.000308461
-0.00031565
-0.000322248
-0.000328252
-0.000333655
-0.000338446
-0.000342614
-0.000346147
-0.000349034
-0.000351262
-0.000352821
-0.000353701
-0.000353888
-0.00035337
-0.000352134
-0.000350173
-0.000347476
-0.000344036
-0.000339849
-0.000334909
-0.000329212
-0.000322758
-0.000315547
-0.000307584
-0.000298877
-0.000289452
-0.000279332
-0.000268563
-0.000257059
-0.000245231
-0.000232454
0.000202767
0.000187284
0.000171696
0.000155818
0.000139721
0.000123497
0.000107205
9.08674e-05
7.44871e-05
5.80674e-05
4.16227e-05
2.51747e-05
8.74688e-06
-7.63937e-06
-2.39644e-05
-4.02088e-05
-5.63522e-05
-7.23732e-05
-8.82493e-05
-0.000103958
-0.000119475
-0.000134779
-0.000149844
-0.000164649
-0.000179169
-0.000193381
-0.000207261
-0.000220785
-0.000233932
-0.000246677
-0.000258999
-0.000270875
-0.000282282
-0.000293203
-0.000303618
-0.000313505
-0.000322845
-0.000331618
-0.000339811
-0.000347413
-0.000354414
-0.000360812
-0.000366602
-0.000371776
-0.000376323
-0.000380234
-0.000383499
-0.000386111
-0.000388058
-0.000389332
-0.000389923
-0.000389822
-0.000389019
-0.000387507
-0.000385279
-0.000382332
-0.000378661
-0.000374265
-0.000369142
-0.000363296
-0.000356729
-0.000349453
-0.000341482
-0.000332845
-0.000323553
-0.000313635
-0.000303023
-0.000292286
-0.000280632
0.00019677
0.000180456
0.000164031
0.0001473
0.000130339
0.000113246
9.6083e-05
7.88744e-05
6.16236e-05
4.43345e-05
2.70223e-05
9.71024e-06
-7.57652e-06
-2.48149e-05
-4.19838e-05
-5.90626e-05
-7.603e-05
-9.28632e-05
-0.000109539
-0.000126033
-0.000142321
-0.000158379
-0.000174182
-0.000189707
-0.000204929
-0.000219823
-0.000234366
-0.000248534
-0.000262303
-0.000275651
-0.000288555
-0.000300992
-0.000312941
-0.000324385
-0.000335303
-0.000345676
-0.000355483
-0.000364709
-0.000373341
-0.00038137
-0.000388788
-0.000395594
-0.000401787
-0.000407358
-0.0004123
-0.000416606
-0.00042027
-0.000423284
-0.000425641
-0.000427334
-0.000428356
-0.000428701
-0.000428362
-0.000427335
-0.000425616
-0.000423202
-0.000420095
-0.000416292
-0.000411799
-0.00040662
-0.000400764
-0.00039425
-0.000387101
-0.000379339
-0.000370955
-0.000361964
-0.000352322
-0.000342619
-0.000331646
0.000189902
0.000172702
0.000155386
0.000137747
0.000119868
0.000101852
8.37638e-05
6.56315e-05
4.74582e-05
2.92481e-05
1.10168e-05
-7.21075e-06
-2.54076e-05
-4.35488e-05
-6.16117e-05
-7.95743e-05
-9.7414e-05
-0.000115107
-0.000132628
-0.000149952
-0.000167054
-0.000183908
-0.00020049
-0.000216773
-0.000232733
-0.000248345
-0.000263584
-0.000278426
-0.000292847
-0.000306824
-0.000320334
-0.000333355
-0.000345868
-0.000357853
-0.000369293
-0.000380166
-0.000390456
-0.000400148
-0.000409232
-0.000417701
-0.000425549
-0.000432777
-0.000439385
-0.000445368
-0.000450719
-0.000455437
-0.000459515
-0.000462951
-0.000465739
-0.000467874
-0.000469354
-0.000470174
-0.000470332
-0.000469826
-0.000468655
-0.00046682
-0.000464323
-0.000461168
-0.000457361
-0.000452913
-0.00044784
-0.000442168
-0.000435917
-0.000429104
-0.000421727
-0.000413834
-0.000405456
-0.000396882
-0.000385744
0.000182025
0.000163882
0.000145617
0.000127013
0.000108156
8.91567e-05
7.00859e-05
5.09722e-05
3.18196e-05
1.26324e-05
-6.57328e-06
-2.57711e-05
-4.49323e-05
-6.403e-05
-8.30398e-05
-0.000101938
-0.000120702
-0.000139304
-0.000157719
-0.000175921
-0.000193883
-0.000211578
-0.000228979
-0.000246061
-0.000262798
-0.000279163
-0.000295131
-0.000310678
-0.000325779
-0.000340412
-0.000354553
-0.000368181
-0.000381277
-0.000393822
-0.000405799
-0.000417187
-0.000427972
-0.000438143
-0.000447691
-0.00045661
-0.000464898
-0.000472559
-0.000479592
-0.000485997
-0.00049177
-0.000496912
-0.00050142
-0.000505294
-0.000508532
-0.000511133
-0.000513095
-0.000514419
-0.000515106
-0.000515158
-0.000514576
-0.000513364
-0.000511529
-0.000509077
-0.000506018
-0.000502371
-0.000498156
-0.000493393
-0.000488094
-0.000482294
-0.000476043
-0.000469474
-0.000462653
-0.000455818
-0.000448391
0.000172974
0.000153827
0.000134553
0.00011492
9.5023e-05
7.49778e-05
5.48611e-05
3.47038e-05
1.45107e-05
-5.71426e-06
-2.5954e-05
-4.61809e-05
-6.63643e-05
-8.64755e-05
-0.000106488
-0.000126378
-0.000146118
-0.000165682
-0.000185043
-0.000204172
-0.000223041
-0.000241622
-0.000259887
-0.000277809
-0.000295361
-0.000312516
-0.000329247
-0.000345531
-0.000361341
-0.000376656
-0.000391451
-0.000405707
-0.000419405
-0.000432526
-0.000445054
-0.000456969
-0.000468261
-0.000478919
-0.000488939
-0.000498315
-0.00050705
-0.000515149
-0.000522616
-0.000529451
-0.000535655
-0.000541231
-0.000546181
-0.000550507
-0.000554213
-0.000557299
-0.000559768
-0.000561625
-0.000562873
-0.000563519
-0.000563567
-0.000563026
-0.000561905
-0.000560214
-0.000557969
-0.000555191
-0.000551896
-0.000548092
-0.000543807
-0.000539136
-0.000534144
-0.000528997
-0.000523593
-0.000518733
-0.000513076
0.000162556
0.00014234
0.00012199
0.000101263
8.02574e-05
5.90988e-05
3.78686e-05
1.66008e-05
-4.69919e-06
-2.60272e-05
-4.73655e-05
-6.86852e-05
-8.99534e-05
-0.000111139
-0.000132215
-0.000153154
-0.000173928
-0.00019451
-0.00021487
-0.000234978
-0.000254804
-0.000274319
-0.000293493
-0.000312298
-0.000330706
-0.000348688
-0.000366218
-0.00038327
-0.000399819
-0.000415841
-0.000431313
-0.000446217
-0.000460533
-0.000474244
-0.000487332
-0.000499784
-0.000511588
-0.000522739
-0.000533233
-0.000543069
-0.000552252
-0.000560792
-0.000568693
-0.00057596
-0.000582598
-0.000588613
-0.000594012
-0.000598802
-0.000602988
-0.000606576
-0.000609574
-0.00061199
-0.000613832
-0.000615108
-0.000615829
-0.000616006
-0.000615653
-0.000614781
-0.00061341
-0.000611552
-0.000609217
-0.000606438
-0.000603308
-0.0005999
-0.000596248
-0.000592539
-0.000588788
-0.000585961
-0.000582606
0.000150545
0.000129189
0.000107694
8.58011e-05
6.36155e-05
4.12709e-05
1.88552e-05
-3.59453e-06
-2.60721e-05
-4.85731e-05
-7.10792e-05
-9.35597e-05
-0.00011598
-0.000138306
-0.000160509
-0.000182559
-0.000204429
-0.000226087
-0.000247502
-0.000268643
-0.000289478
-0.000309976
-0.000330106
-0.000349838
-0.000369142
-0.000387989
-0.000406351
-0.000424201
-0.000441515
-0.000458268
-0.000474438
-0.000490006
-0.000504954
-0.000519264
-0.00053292
-0.000545911
-0.00055823
-0.000569873
-0.00058084
-0.000591133
-0.000600761
-0.000609737
-0.000618069
-0.000625765
-0.000632835
-0.000639291
-0.000645142
-0.0006504
-0.000655076
-0.000659181
-0.000662728
-0.000665728
-0.000668192
-0.000670136
-0.000671573
-0.000672519
-0.000672988
-0.000672986
-0.000672531
-0.00067163
-0.000670335
-0.000668726
-0.000666857
-0.000664731
-0.000662476
-0.000660367
-0.000658502
-0.000657409
-0.000655978
0.00013667
0.000114098
9.13805e-05
6.82446e-05
4.48003e-05
2.1191e-05
-2.48871e-06
-2.61983e-05
-4.99305e-05
-7.36805e-05
-9.74297e-05
-0.000121145
-0.00014479
-0.000168329
-0.000191729
-0.000214959
-0.00023799
-0.000260788
-0.00028332
-0.000305554
-0.000327454
-0.000348988
-0.000370124
-0.000390829
-0.000411072
-0.000430823
-0.000450053
-0.000468734
-0.000486841
-0.000504347
-0.000521232
-0.000537478
-0.000553066
-0.000567979
-0.000582204
-0.000595732
-0.000608559
-0.000620685
-0.000632111
-0.000642847
-0.000652905
-0.000662302
-0.000671048
-0.000679158
-0.000686647
-0.000693532
-0.000699828
-0.000705553
-0.000710722
-0.000715354
-0.000719464
-0.00072307
-0.000726187
-0.000728837
-0.000731038
-0.0007328
-0.000734137
-0.000735049
-0.000735554
-0.000735723
-0.000735612
-0.000735228
-0.000734598
-0.000733867
-0.00073321
-0.000732796
-0.000732591
-0.000733166
-0.000733622
0.000120626
9.67559e-05
7.27365e-05
4.82755e-05
2.34898e-05
-1.46757e-06
-2.64945e-05
-5.15463e-05
-7.66145e-05
-0.000101694
-0.000126766
-0.000151795
-0.000176743
-0.000201569
-0.00022624
-0.000250722
-0.000274982
-0.000298987
-0.0003227
-0.000346087
-0.000369109
-0.000391734
-0.000413925
-0.000435648
-0.000456872
-0.000477563
-0.000497692
-0.00051723
-0.00053615
-0.000554428
-0.000572042
-0.000588974
-0.000605205
-0.00062072
-0.000635508
-0.000649565
-0.000662888
-0.00067548
-0.000687349
-0.000698508
-0.000708976
-0.000718771
-0.00072791
-0.000736414
-0.000744304
-0.000751601
-0.00075833
-0.000764515
-0.000770177
-0.000775341
-0.000780027
-0.00078426
-0.000788065
-0.000791464
-0.000794471
-0.000797096
-0.000799341
-0.000801239
-0.000802856
-0.000804225
-0.000805319
-0.000806187
-0.000806996
-0.000807879
-0.000808839
-0.000809984
-0.000811291
-0.000813498
-0.000815687
0.000102007
7.67489e-05
5.13364e-05
2.54587e-05
-7.61304e-07
-2.71601e-05
-5.36274e-05
-8.01139e-05
-0.00010661
-0.00013311
-0.000159594
-0.000186026
-0.000212362
-0.000238563
-0.000264588
-0.000290404
-0.000315974
-0.000341262
-0.00036623
-0.000390839
-0.000415051
-0.000438828
-0.000462133
-0.00048493
-0.000507183
-0.000528859
-0.000549926
-0.000570353
-0.000590112
-0.000609179
-0.000627531
-0.000645151
-0.000662019
-0.000678124
-0.000693456
-0.000708014
-0.000721801
-0.000734823
-0.000747092
-0.000758629
-0.000769458
-0.000779601
-0.000789083
-0.00079793
-0.000806173
-0.000813842
-0.00082097
-0.000827585
-0.000833718
-0.000839401
-0.000844664
-0.000849542
-0.00085406
-0.000858238
-0.000862083
-0.00086562
-0.000868891
-0.000871935
-0.000874754
-0.000877336
-0.000879779
-0.00088221
-0.000884659
-0.000887141
-0.000889692
-0.000892442
-0.000895416
-0.000899273
-0.000903052
8.04391e-05
5.37016e-05
2.68061e-05
-5.79983e-07
-2.83277e-05
-5.62623e-05
-8.42642e-05
-0.000112279
-0.000140295
-0.000168307
-0.000196293
-0.000224216
-0.00025203
-0.000279689
-0.000307153
-0.000334382
-0.000361339
-0.000387984
-0.000414276
-0.000440174
-0.000465636
-0.000490622
-0.000515091
-0.000539005
-0.000562326
-0.000585018
-0.000607048
-0.000628383
-0.000648996
-0.000668861
-0.000687957
-0.000706261
-0.000723759
-0.000740439
-0.000756296
-0.000771332
-0.000785553
-0.000798969
-0.0008116
-0.000823474
-0.000834618
-0.000845059
-0.000854831
-0.000863971
-0.000872517
-0.000880508
-0.000887985
-0.000894988
-0.00090156
-0.000907744
-0.000913575
-0.000919088
-0.000924311
-0.000929277
-0.000934032
-0.000938613
-0.000943028
-0.000947261
-0.000951367
-0.000955446
-0.000959557
-0.00096368
-0.000967844
-0.000972137
-0.000976632
-0.000981449
-0.000986619
-0.000992633
-0.000998434
5.52263e-05
2.68985e-05
-1.5943e-06
-3.06023e-05
-5.99916e-05
-8.95769e-05
-0.000119229
-0.000148886
-0.000178536
-0.000208173
-0.000237775
-0.000267301
-0.000296702
-0.00032593
-0.000354939
-0.000383686
-0.000412132
-0.000440233
-0.000467946
-0.000495224
-0.000522024
-0.000548301
-0.000574012
-0.000599114
-0.000623567
-0.000647331
-0.000670368
-0.000692644
-0.000714128
-0.000734796
-0.000754622
-0.000773587
-0.000791675
-0.000808878
-0.000825197
-0.000840634
-0.000855202
-0.000868918
-0.00088181
-0.000893913
-0.000905259
-0.000915885
-0.000925834
-0.000935151
-0.000943883
-0.000952085
-0.000959813
-0.000967122
-0.000974061
-0.000980677
-0.000987006
-0.0009931
-0.000999026
-0.00100484
-0.00101056
-0.00101619
-0.00102179
-0.00102743
-0.00103315
-0.00103895
-0.00104483
-0.0010509
-0.00105727
-0.00106403
-0.00107122
-0.00107897
-0.00108715
-0.00109612
-0.00110453
2.60993e-05
-3.91695e-06
-3.40953e-05
-6.48185e-05
-9.5947e-05
-0.000127282
-0.000158682
-0.00019008
-0.00022146
-0.000252816
-0.000284126
-0.000315347
-0.000346427
-0.000377311
-0.00040795
-0.000438298
-0.000468311
-0.000497942
-0.000527143
-0.000555864
-0.000584057
-0.000611673
-0.000638666
-0.000664991
-0.000690603
-0.000715464
-0.000739531
-0.00076277
-0.000785146
-0.000806631
-0.000827199
-0.000846828
-0.000865503
-0.000883219
-0.000899976
-0.000915782
-0.000930652
-0.000944616
-0.000957713
-0.000969981
-0.000981463
-0.000992205
-0.00100226
-0.00101169
-0.00102054
-0.0010289
-0.00103681
-0.00104434
-0.00105157
-0.00105854
-0.00106534
-0.00107202
-0.00107865
-0.00108526
-0.00109193
-0.00109874
-0.00110577
-0.00111304
-0.0011205
-0.00112824
-0.0011364
-0.00114513
-0.00115448
-0.00116453
-0.00117529
-0.00118675
-0.00119827
-0.00121025
-0.00121947
-8.50503e-06
-4.03628e-05
-7.23982e-05
-0.000104999
-0.000138026
-0.000171271
-0.000204583
-0.000237885
-0.000271158
-0.000304395
-0.000337575
-0.000370651
-0.000403566
-0.000436263
-0.000468688
-0.000500789
-0.000532519
-0.000563826
-0.000594658
-0.000624961
-0.00065468
-0.00068376
-0.000712148
-0.000739791
-0.000766638
-0.000792643
-0.000817762
-0.000841958
-0.000865195
-0.000887442
-0.000908674
-0.000928869
-0.000948016
-0.00096611
-0.000983154
-0.000999158
-0.00101414
-0.00102814
-0.00104121
-0.00105338
-0.00106472
-0.0010753
-0.0010852
-0.0010945
-0.00110327
-0.00111159
-0.00111953
-0.00112717
-0.00113457
-0.00114183
-0.00114904
-0.00115626
-0.00116358
-0.00117111
-0.00117894
-0.00118715
-0.00119573
-0.00120475
-0.00121434
-0.00122464
-0.00123572
-0.00124764
-0.00126048
-0.00127424
-0.00128871
-0.00130355
-0.00131773
-0.00133153
-0.00134036
-4.77191e-05
-8.1483e-05
-0.000115401
-0.000149928
-0.000184916
-0.000220139
-0.000255429
-0.000290702
-0.000325935
-0.000361123
-0.00039624
-0.000431239
-0.000466058
-0.000500633
-0.000534903
-0.000568814
-0.00060231
-0.000635338
-0.00066784
-0.00069976
-0.000731041
-0.000761625
-0.000791457
-0.000820478
-0.000848631
-0.00087586
-0.000902112
-0.000927342
-0.000951505
-0.000974566
-0.000996492
-0.00101727
-0.00103688
-0.00105533
-0.00107262
-0.00108878
-0.00110384
-0.00111782
-0.00113078
-0.00114276
-0.00115385
-0.00116412
-0.00117369
-0.00118267
-0.0011912
-0.00119939
-0.00120735
-0.00121512
-0.00122276
-0.00123035
-0.00123803
-0.00124596
-0.00125428
-0.00126304
-0.00127228
-0.00128207
-0.00129253
-0.00130376
-0.00131585
-0.00132883
-0.00134271
-0.0013575
-0.00137312
-0.00138933
-0.00140568
-0.00142161
-0.00143611
-0.00144912
-0.00145742
-9.67231e-05
-0.00013266
-0.000168807
-0.000205562
-0.000242792
-0.000280273
-0.000317825
-0.00035535
-0.000392823
-0.000430236
-0.000467568
-0.000504767
-0.000541767
-0.000578497
-0.00061489
-0.000650882
-0.000686412
-0.000721416
-0.000755824
-0.000789567
-0.000822578
-0.000854794
-0.000886155
-0.000916603
-0.00094608
-0.000974529
-0.00100189
-0.00102811
-0.00105313
-0.00107691
-0.00109941
-0.00112061
-0.00114047
-0.00115901
-0.00117622
-0.00119213
-0.00120678
-0.00122022
-0.00123252
-0.00124373
-0.00125394
-0.00126324
-0.00127177
-0.00127968
-0.00128719
-0.00129452
-0.00130191
-0.00130951
-0.00131731
-0.00132524
-0.00133341
-0.00134211
-0.00135156
-0.00136175
-0.00137264
-0.00138433
-0.00139687
-0.00141018
-0.00142416
-0.00143867
-0.00145357
-0.00146869
-0.0014838
-0.00149857
-0.00151255
-0.00152526
-0.00153599
-0.00154459
-0.00154924
-0.0001475
-0.00018557
-0.000223726
-0.000262579
-0.000301985
-0.000341674
-0.000381436
-0.000421162
-0.00046082
-0.000500404
-0.000539892
-0.000579231
-0.000618353
-0.000657181
-0.000695643
-0.000733673
-0.00077121
-0.000808189
-0.000844543
-0.000880192
-0.00091505
-0.000949032
-0.000982057
-0.00101405
-0.00104496
-0.00107472
-0.00110326
-0.00113054
-0.00115651
-0.0011811
-0.00120429
-0.00122605
-0.00124635
-0.00126518
-0.00128257
-0.00129853
-0.00131311
-0.00132636
-0.00133836
-0.0013492
-0.00135896
-0.00136778
-0.00137576
-0.00138305
-0.00138983
-0.00139636
-0.00140301
-0.00141019
-0.00141811
-0.00142661
-0.00143553
-0.0014451
-0.00145572
-0.00146736
-0.00147977
-0.00149276
-0.00150608
-0.00151936
-0.00153224
-0.00154441
-0.00155566
-0.00156585
-0.00157493
-0.00158287
-0.00158964
-0.00159516
-0.00159913
-0.00160137
-0.00160043
-0.000223041
-0.00026358
-0.000304508
-0.000346096
-0.000388222
-0.000430668
-0.000473223
-0.000515754
-0.000558215
-0.000600591
-0.000642855
-0.000684946
-0.000726787
-0.000768289
-0.000809366
-0.000849935
-0.000889915
-0.000929224
-0.000967793
-0.00100556
-0.00104245
-0.00107838
-0.00111324
-0.00114692
-0.00117932
-0.00121037
-0.00123998
-0.00126806
-0.00129455
-0.00131938
-0.00134253
-0.00136396
-0.00138365
-0.00140157
-0.00141774
-0.00143219
-0.00144498
-0.00145623
-0.00146606
-0.00147464
-0.00148214
-0.00148874
-0.00149462
-0.00149998
-0.00150501
-0.00150992
-0.00151497
-0.00152062
-0.00152733
-0.00153513
-0.00154373
-0.00155308
-0.00156319
-0.00157383
-0.00158451
-0.00159467
-0.00160378
-0.00161138
-0.00161723
-0.00162133
-0.00162377
-0.00162471
-0.0016245
-0.0016236
-0.00162251
-0.00162157
-0.00162082
-0.00161979
-0.0016171
-0.00027811
-0.000321056
-0.00036384
-0.000407559
-0.00045198
-0.000496694
-0.000541464
-0.000586198
-0.000630875
-0.000675482
-0.000719988
-0.000764328
-0.000808421
-0.000852179
-0.000895518
-0.000938366
-0.000980643
-0.00102224
-0.00106302
-0.00110291
-0.00114184
-0.00117975
-0.00121657
-0.00125219
-0.00128653
-0.00131951
-0.00135105
-0.0013811
-0.00140951
-0.00143614
-0.0014609
-0.00148374
-0.00150465
-0.00152361
-0.00154058
-0.00155555
-0.00156854
-0.00157961
-0.00158887
-0.00159646
-0.00160259
-0.0016075
-0.00161136
-0.00161446
-0.00161713
-0.00161964
-0.00162215
-0.00162478
-0.0016277
-0.00163099
-0.00163464
-0.0016386
-0.00164264
-0.0016465
-0.00164985
-0.00165233
-0.00165362
-0.0016534
-0.00165155
-0.00164846
-0.00164446
-0.00163983
-0.00163493
-0.00163029
-0.00162649
-0.00162393
-0.00162244
-0.00162101
-0.00161851
-0.000402118
-0.00044788
-0.000494756
-0.000542489
-0.00059075
-0.000639281
-0.000687859
-0.000736351
-0.000784727
-0.000832991
-0.00088111
-0.000929004
-0.000976566
-0.00102369
-0.00107026
-0.0011162
-0.00116139
-0.00120577
-0.00124922
-0.00129161
-0.00133277
-0.00137257
-0.00141088
-0.00144758
-0.00148252
-0.00151554
-0.00154647
-0.00157522
-0.00160177
-0.00162616
-0.00164833
-0.00166819
-0.00168565
-0.00170061
-0.00171301
-0.0017228
-0.00172997
-0.00173454
-0.00173658
-0.00173623
-0.00173369
-0.00172921
-0.0017231
-0.00171572
-0.00170749
-0.00169889
-0.00169037
-0.00168233
-0.00167514
-0.00166908
-0.00166436
-0.00166101
-0.00165896
-0.00165801
-0.00165787
-0.00165813
-0.00165834
-0.00165796
-0.00165658
-0.00165393
-0.00165002
-0.00164517
-0.00163979
-0.00163437
-0.00162954
-0.00162589
-0.0016234
-0.00162097
-0.00161764
0.000334609
0.00033869
0.000343287
0.000348367
0.000353841
0.000359748
0.000366239
0.000373167
0.000380558
0.000388262
0.000396419
0.000405121
0.000413997
0.00042371
0.00043279
0.00044251
0.000451693
0.000461344
0.000470668
0.000479814
0.000489177
0.00049708
0.000504775
0.00051126
0.000517014
0.000522093
0.000525596
0.000527757
0.000529013
0.000529036
0.000527028
0.000523709
0.000519201
0.000513748
0.000506356
0.000497868
0.000488564
0.000478178
0.000466827
0.0004551
0.000442726
0.000429925
0.000417176
0.000404552
0.000391259
0.000378671
0.000365817
0.000353554
0.000341357
0.000329426
0.000317994
0.000306939
0.00029648
0.000286563
0.000277138
0.000267691
0.000258743
0.00025006
0.000241705
0.000335912
0.000340265
0.00034514
0.000350446
0.000356215
0.000362461
0.000369216
0.000376451
0.000384176
0.000392346
0.000400941
0.000409986
0.000419372
0.000429093
0.000439082
0.000449095
0.000459267
0.000469306
0.00047931
0.000488896
0.000498222
0.000507023
0.000515039
0.000522088
0.000528206
0.00053341
0.000537337
0.000539744
0.000541089
0.000541033
0.000539122
0.000535927
0.000531319
0.00052528
0.000517712
0.000508863
0.000499024
0.000488254
0.000476516
0.000464114
0.000451298
0.000438061
0.000424619
0.000410974
0.000397349
0.000383894
0.000370583
0.000357623
0.000344929
0.000332547
0.000320597
0.000309082
0.000297975
0.000287378
0.000277165
0.000267405
0.000258055
0.000249107
0.000240521
0.00033779
0.000342388
0.000347475
0.000353033
0.000359084
0.000365642
0.000372709
0.000380283
0.000388362
0.000396928
0.000405948
0.000415383
0.000425206
0.000435375
0.000445821
0.000456503
0.00046726
0.000477942
0.000488447
0.000498608
0.000508325
0.000517589
0.000526113
0.00053367
0.000540235
0.000545689
0.000549847
0.000552578
0.000554028
0.000553952
0.000552201
0.000548981
0.000544129
0.000537737
0.000529828
0.000520623
0.000510266
0.00049895
0.000486726
0.000473807
0.000460325
0.000446367
0.000432149
0.000417833
0.000403538
0.000389394
0.000375432
0.000361764
0.000348427
0.000335437
0.000322867
0.000310718
0.000299013
0.000287766
0.00027702
0.000266758
0.000256943
0.000247576
0.00023861
0.000339549
0.000344379
0.000349731
0.000355574
0.000361936
0.000368828
0.000376253
0.000384208
0.000392685
0.000401674
0.000411152
0.000421083
0.000431435
0.000442148
0.000453139
0.000464362
0.000475646
0.000486911
0.000497993
0.000508772
0.000519092
0.000528834
0.000537836
0.000545873
0.000552871
0.000558662
0.000563094
0.000566082
0.000567658
0.000567615
0.00056592
0.000562607
0.000557543
0.000550869
0.000542605
0.000532983
0.000522116
0.000510189
0.00049733
0.000483735
0.000469514
0.000454826
0.000439891
0.00042488
0.000409856
0.000394962
0.000380267
0.000365859
0.000351806
0.000338139
0.000324901
0.000312123
0.000299831
0.000288031
0.000276737
0.000265942
0.000255634
0.000245814
0.000236436
0.000340906
0.000345985
0.000351617
0.000357767
0.000364466
0.000371719
0.000379534
0.000387909
0.000396838
0.000406306
0.000416293
0.000426766
0.000437683
0.000448979
0.000460576
0.000472382
0.000484276
0.000496158
0.000507876
0.000519286
0.000530228
0.000540537
0.000550054
0.000558588
0.000566022
0.000572193
0.000576946
0.000580174
0.000581886
0.0005819
0.000580204
0.000576778
0.000571512
0.000564543
0.000555909
0.000545825
0.000534421
0.000521867
0.000508324
0.000493987
0.000479016
0.000463592
0.000447905
0.00043211
0.000416309
0.000400628
0.000385165
0.000370003
0.000355212
0.000340841
0.000326932
0.000313516
0.000300617
0.000288242
0.000276394
0.000265073
0.00025427
0.00024398
0.000234153
0.000341931
0.000347271
0.000353191
0.000359658
0.000366703
0.000374335
0.00038256
0.00039138
0.000400789
0.000410772
0.000421305
0.000432353
0.000443869
0.000455788
0.000468032
0.0004805
0.000493078
0.000505642
0.000518041
0.000530115
0.000541703
0.000552635
0.00056273
0.000571805
0.000579713
0.000586296
0.000591396
0.000594884
0.000596748
0.000596833
0.000595127
0.000591583
0.000586099