/*--------------------------------*- C++ -*----------------------------------*\
| =========                 |                                                 |
| \\      /  F ield         | OpenFOAM: The Open Source CFD Toolbox           |
|  \\    /   O peration     | Version:  2312                                  |
|   \\  /    A nd           | Website:  www.openfoam.com                      |
|    \\/     M anipulation  |                                                 |
\*---------------------------------------------------------------------------*/
FoamFile
{
    version     2.0;
    format      ascii;
    arch        "LSB;label=32;scalar=64";
    class       surfaceScalarField;
    location    "1200";
    object      phi;
}
// * * * * * * * * * * * * * * * * * * * * * * * * * * * * * * * * * * * * * //

dimensions      [0 3 -1 0 0 0 0];

oriented        oriented;

internalField   nonuniform List<scalar> 
116611
(
0.00111835
0.000443782
-0.00110302
-0.00045912
0.00113367
0.000440731
-0.000456049
0.00114874
0.000437325
-0.000452394
0.00116369
0.000433582
-0.000448535
0.00117873
0.00042967
-0.000444705
0.00119389
0.000425531
-0.000440689
0.00120877
0.000421144
-0.00043603
0.00122363
0.000416496
-0.000431352
0.00123782
0.000411369
-0.000425557
0.00125184
0.000405829
-0.000419854
0.00126577
0.000399972
-0.000413904
0.00127951
0.000393804
-0.000407542
0.00129273
0.000387227
-0.000400451
0.00130542
0.000380173
-0.000392861
0.00131769
0.000372675
-0.000384943
0.00132955
0.000364741
-0.000376597
0.00134128
0.000356379
-0.000368108
0.00135257
0.000347644
-0.000358943
0.00136345
0.000338326
-0.0003492
0.00137385
0.000328653
-0.000339052
0.00138387
0.000318431
-0.000328457
0.00139317
0.000307705
-0.000316999
0.00140189
0.000296406
-0.000305128
0.00141022
0.00028472
-0.000293055
0.00141805
0.000272529
-0.000280355
0.00142545
0.000259818
-0.000267223
0.00143223
0.000246487
-0.000253263
0.00143842
0.000232702
-0.000238887
0.00144441
0.00021849
-0.000224483
0.0014495
0.00020374
-0.000208827
0.00145417
0.000188498
-0.000193173
0.00145845
0.000172599
-0.000176876
0.001462
0.00015615
-0.000159702
0.00146496
0.000139236
-0.0001422
0.00146733
0.000121724
-0.000124089
0.00146899
0.000103796
-0.000105458
0.00147058
8.54066e-05
-8.69931e-05
0.00147112
6.63787e-05
-6.69259e-05
0.00147119
4.68269e-05
-4.68922e-05
0.00147037
2.65941e-05
-2.57722e-05
0.00146895
6.05453e-06
-4.63222e-06
0.00146733
-1.50137e-05
1.66266e-05
0.00146455
-3.67997e-05
3.95862e-05
0.00146118
-5.89659e-05
6.23315e-05
0.00145688
-8.16617e-05
8.59658e-05
0.00145222
-0.000104646
0.000109301
0.00144656
-0.000128221
0.000133883
0.00143979
-0.000152143
0.000158913
0.0014324
-0.000176216
0.000183606
0.00142419
-0.000200588
0.000208793
0.00141491
-0.00022531
0.000234597
0.00140476
-0.000250138
0.000260286
0.00139363
-0.000275116
0.000286247
0.00138127
-0.000300237
0.000312594
0.00136724
-0.000325349
0.000339385
0.00135303
-0.000349855
0.000364064
0.0013369
-0.000374486
0.000390618
0.00132012
-0.000398496
0.000415271
0.00130239
-0.00042195
0.000439676
0.00128382
-0.000444717
0.000463289
0.00126349
-0.00046727
0.000487601
0.00124231
-0.000488672
0.000509855
0.00122034
-0.000508582
0.000530546
0.00119707
-0.00052746
0.000550732
0.00117224
-0.000544944
0.000569781
0.00114787
-0.000559926
0.000584289
0.00112278
-0.000573095
0.000598187
0.00109617
-0.000585024
0.000611631
-0.000592481
0.00106509
0.000623566
0.00110542
0.000428167
-0.0010898
0.00112078
0.000425366
0.0011359
0.000422209
0.00115077
0.000418709
0.00116556
0.000414885
0.00118027
0.000410814
0.00119494
0.000406475
0.00120957
0.000401874
0.00122395
0.000396981
0.00123806
0.000391721
0.00125194
0.000386098
0.00126561
0.000380132
0.00127903
0.000373802
0.00129212
0.00036709
0.0013048
0.000359994
0.00131709
0.000352447
0.00132899
0.000344478
0.00134057
0.000336065
0.00135169
0.000327205
0.00136247
0.000317879
0.0013728
0.000308096
0.00138267
0.000297843
0.00139198
0.000287095
0.00140082
0.000275879
0.00140917
0.000264171
0.00141706
0.000251938
0.00142433
0.000239207
0.00143107
0.000225969
0.00143733
0.000212231
0.00144303
0.000198034
0.00144825
0.000183285
0.00145288
0.000167968
0.00145688
0.000152145
0.00146031
0.000135805
0.00146309
0.000118949
0.0014653
0.000101585
0.00146698
8.37226e-05
0.00146801
6.53506e-05
0.00146841
4.64265e-05
0.00146804
2.69678e-05
0.00146703
7.06257e-06
0.00146537
-1.33497e-05
0.00146286
-3.42974e-05
0.00145963
-5.57302e-05
0.00145556
-7.75971e-05
0.00145076
-9.98462e-05
0.00144504
-0.000122495
0.0014384
-0.000145504
0.00143094
-0.000168759
0.0014226
-0.000192249
0.00141328
-0.000215982
0.00140301
-0.000239868
0.00139174
-0.000263852
0.00137939
-0.000287883
0.0013659
-0.000311858
0.00135158
-0.000335539
0.00133609
-0.000358996
0.00131965
-0.000382058
0.00130227
-0.000404572
0.00128404
-0.000426488
0.00126459
-0.000447819
0.00124413
-0.000468208
0.00122291
-0.000487359
0.00120071
-0.000505268
0.00117752
-0.000521747
0.00115385
-0.000536262
0.0011295
-0.000548739
0.00110414
-0.000559667
-0.000566221
0.00107788
0.00109253
0.000412528
-0.00107689
0.00110801
0.000409885
0.00112329
0.000406927
0.00113834
0.000403661
0.00115315
0.000400073
0.00116779
0.000396178
0.00118228
0.000391982
0.00119666
0.000387492
0.00121092
0.000382719
0.001225
0.000377642
0.00123886
0.00037224
0.0012525
0.000366498
0.00126589
0.000360405
0.00127903
0.000353953
0.00129189
0.000347134
0.00130441
0.000339926
0.00131658
0.000332311
0.00132837
0.000324273
0.00133977
0.000315802
0.00135077
0.000306884
0.00136134
0.000297519
0.00137149
0.000287697
0.00138117
0.00027741
0.0013904
0.000266656
0.00139914
0.000255429
0.00140736
0.000243713
0.00141507
0.000231505
0.00142223
0.000218802
0.00142886
0.000205605
0.00143498
0.000191915
0.00144055
0.000177713
0.00144552
0.000162994
0.00144991
0.000147762
0.00145369
0.000132025
0.00145685
0.000115785
0.00145939
9.90417e-05
0.00146131
8.18029e-05
0.0014626
6.40636e-05
0.00146321
4.5814e-05
0.00146311
2.70687e-05
0.0014623
7.87526e-06
0.00146076
-1.18148e-05
0.00145847
-3.20024e-05
0.00145539
-5.26481e-05
0.0014515
-7.37056e-05
0.00144679
-9.51441e-05
0.00144124
-0.000116944
0.00143481
-0.000139075
0.00142752
-0.000161467
0.00141935
-0.000184082
0.00141027
-0.000206898
0.00140026
-0.000229859
0.00138931
-0.000252897
0.00137737
-0.000275948
0.00136444
-0.000298922
0.00135058
-0.000321684
0.00133576
-0.000344175
0.00132
-0.000366297
0.00130334
-0.000387917
0.0012858
-0.000408942
0.00126727
-0.00042929
0.00124782
-0.000448754
0.00122756
-0.000467101
0.00120647
-0.000484179
0.00118454
-0.00049982
0.00116199
-0.000513705
0.00113884
-0.000525594
0.00111496
-0.000535792
-0.000541755
0.0010905
0.00108034
0.00039705
-0.00106486
0.00109576
0.000394467
0.00111107
0.000391617
0.00112622
0.000388509
0.00114117
0.000385123
0.0011559
0.000381442
0.00117043
0.000377457
0.00118476
0.000373164
0.00119891
0.000368565
0.00121289
0.000363663
0.00122668
0.000358452
0.00124025
0.000352921
0.0012536
0.000347057
0.00126671
0.000340848
0.00127956
0.000334285
0.00129212
0.000327358
0.00130438
0.000320052
0.0013163
0.000312352
0.00132786
0.000304244
0.00133903
0.000295714
0.0013498
0.000286753
0.00136014
0.000277351
0.00137005
0.000267502
0.00137951
0.0002572
0.0013885
0.000246439
0.001397
0.000235211
0.001405
0.000223507
0.00141248
0.000211325
0.00141942
0.000198659
0.00142583
0.000185507
0.00143168
0.000171864
0.00143695
0.000157724
0.00144162
0.000143086
0.0014457
0.000127953
0.00144915
0.00011233
0.00145198
9.62159e-05
0.00145416
7.96153e-05
0.0014557
6.25313e-05
0.00145655
4.49646e-05
0.00145669
2.6923e-05
0.00145612
8.44608e-06
0.00145482
-1.05142e-05
0.00145277
-2.99473e-05
0.00144993
-4.9811e-05
0.0014463
-7.00734e-05
0.00144186
-9.07052e-05
0.00143659
-0.000111678
0.00143048
-0.00013296
0.00142351
-0.000154502
0.00141569
-0.000176261
0.00140699
-0.0001982
0.0013974
-0.000220269
0.00138691
-0.000242403
0.0013755
-0.000264534
0.00136316
-0.000286581
0.00134992
-0.000308445
0.00133578
-0.000330039
0.00132075
-0.000351271
0.00130486
-0.000372027
0.00128812
-0.000392198
0.0012705
-0.000411674
0.00125204
-0.000430286
0.00123278
-0.000447846
0.00121277
-0.000464169
0.00119203
-0.000479084
0.00117069
-0.000492357
0.00114883
-0.000503738
0.00112642
-0.000513379
-0.000518976
0.00110364
0.00106904
0.00038168
-0.00105367
0.00108434
0.00037917
0.00109956
0.000376399
0.00111468
0.000373392
0.00112966
0.000370142
0.00114447
0.000366632
0.00115908
0.000362844
0.00117348
0.000358765
0.00118766
0.000354385
0.00120163
0.000349697
0.00121538
0.0003447
0.00122891
0.000339387
0.00124222
0.000333753
0.00125528
0.000327787
0.00126808
0.000321479
0.00128062
0.000314822
0.00129287
0.000307803
0.00130481
0.000300411
0.00131642
0.000292635
0.00132767
0.000284462
0.00133854
0.00027588
0.00134902
0.000266879
0.00135907
0.000257451
0.00136868
0.000247587
0.00137784
0.00023728
0.00138653
0.000226522
0.00139473
0.000215308
0.00140242
0.000203631
0.00140959
0.000191487
0.00141623
0.000178872
0.00142231
0.000165781
0.00142783
0.00015221
0.00143275
0.000138159
0.00143708
0.000123627
0.00144079
0.000108618
0.00144387
9.31322e-05
0.00144632
7.71738e-05
0.0014481
6.07484e-05
0.0014492
4.3859e-05
0.00144961
2.6512e-05
0.00144932
8.74462e-06
0.00144829
-9.48802e-06
0.00144652
-2.81756e-05
0.00144398
-4.72749e-05
0.00144067
-6.67588e-05
0.00143656
-8.65991e-05
0.00143165
-0.000106767
0.00142592
-0.000127228
0.00141936
-0.000147943
0.00141197
-0.000168869
0.00140373
-0.000189963
0.00139463
-0.000211175
0.00138468
-0.000232444
0.00137385
-0.000253705
0.00136215
-0.000274881
0.00134959
-0.000295885
0.00133618
-0.000316629
0.00132192
-0.000337019
0.00130685
-0.000356951
0.00129096
-0.000376312
0.00127427
-0.000394982
0.00125679
-0.000412809
0.00123858
-0.000429629
0.00121966
-0.000445256
0.0012001
-0.000459526
0.00117999
-0.000472245
0.00115943
-0.00048318
0.00113846
-0.000492409
-0.000498023
0.00111751
0.00105839
0.000366242
-0.00104295
0.00107368
0.000363873
0.00108886
0.000361225
0.00110391
0.000358334
0.00111885
0.000355206
0.00113365
0.000351834
0.00114828
0.000348208
0.00116273
0.000344315
0.00117698
0.000340142
0.001191
0.000335677
0.00120479
0.000330911
0.00121834
0.000325836
0.00123164
0.000320446
0.0012447
0.000314733
0.00125749
0.000308689
0.00127
0.000302306
0.00128223
0.000295574
0.00129416
0.000288485
0.00130577
0.000281028
0.00131703
0.000273193
0.00132794
0.000264971
0.00133847
0.00025635
0.0013486
0.000247322
0.00135831
0.000237878
0.00136758
0.000228009
0.00137639
0.000217708
0.00138473
0.000206969
0.00139258
0.000195784
0.00139992
0.000184148
0.00140673
0.000172058
0.00141301
0.000159509
0.00141872
0.000146497
0.00142386
0.000133021
0.0014284
0.000119081
0.00143234
0.000104678
0.00143566
8.98138e-05
0.00143834
7.44914e-05
0.00144037
5.87172e-05
0.00144174
4.2495e-05
0.00144242
2.58309e-05
0.0014424
8.76058e-06
0.00144167
-8.75795e-06
0.00144021
-2.67161e-05
0.00143801
-4.50708e-05
0.00143505
-6.37964e-05
0.00143131
-8.28665e-05
0.0014268
-0.000102252
0.00142149
-0.000121921
0.00141539
-0.000141837
0.00140847
-0.000161956
0.00140075
-0.000182237
0.0013922
-0.000202627
0.00138283
-0.000223071
0.00137263
-0.000243504
0.0013616
-0.000263854
0.00134975
-0.000284039
0.0013371
-0.000303975
0.00132365
-0.000323567
0.00130941
-0.000342717
0.00129441
-0.00036131
0.00127866
-0.000379228
0.00126218
-0.000396327
0.00124501
-0.000412458
0.0012272
-0.000427446
0.00120881
-0.000441137
0.00118992
-0.000453357
0.00117061
-0.000463873
0.0011509
-0.000472697
-0.000478226
0.0011311
0.00104807
0.00035064
-0.00103247
0.0010635
0.000348449
0.00107875
0.000345972
0.00109384
0.000343243
0.00110878
0.000340269
0.00112356
0.00033705
0.00113819
0.000333582
0.00115264
0.00032986
0.00116691
0.000325875
0.00118097
0.000321616
0.00119481
0.000317073
0.00120841
0.000312236
0.00122176
0.000307096
0.00123485
0.000301644
0.00124766
0.000295872
0.0012602
0.000289771
0.00127244
0.000283334
0.00128437
0.000276552
0.00129598
0.000269415
0.00130726
0.000261916
0.00131819
0.000254046
0.00132874
0.000245794
0.00133891
0.000237153
0.00134867
0.000228115
0.00135801
0.000218669
0.00136691
0.000208811
0.00137535
0.000198531
0.00138331
0.000187824
0.00139077
0.000176683
0.00139773
0.000165105
0.00140415
0.000153085
0.00141003
0.000140619
0.00141534
0.000127706
0.00142008
0.000114344
0.00142423
0.000100535
0.00142776
8.62789e-05
0.00143067
7.158e-05
0.00143294
5.64441e-05
0.00143457
4.08748e-05
0.00143552
2.48783e-05
0.00143579
8.48854e-06
0.00143537
-8.33459e-06
0.00143423
-2.55833e-05
0.00143238
-4.32148e-05
0.00142979
-6.12054e-05
0.00142645
-7.95296e-05
0.00142236
-9.81599e-05
0.0014175
-0.000117065
0.00141187
-0.000136208
0.00140547
-0.000155551
0.00139828
-0.000175049
0.00139031
-0.000194654
0.00138154
-0.000214309
0.00137199
-0.000233953
0.00136165
-0.000253516
0.00135054
-0.000272922
0.00133865
-0.000292089
0.00132601
-0.000310924
0.00131262
-0.000329332
0.00129851
-0.0003472
0.0012837
-0.000364414
0.00126821
-0.000380837
0.00125209
-0.000396332
0.00123538
-0.00041074
0.00121815
-0.000423911
0.00120048
-0.000435679
0.00118239
-0.000445783
0.00116384
-0.000454151
-0.000459338
0.00114495
0.00103805
0.000334903
-0.00102231
0.00105362
0.000332876
0.00106902
0.000330577
0.00108423
0.000328031
0.00109926
0.000325241
0.0011141
0.000322205
0.00112876
0.000318921
0.00114324
0.000315383
0.00115753
0.000311589
0.00117161
0.000307532
0.00118548
0.000303204
0.00119912
0.000298596
0.00121252
0.0002937
0.00122565
0.000288506
0.00123852
0.000283006
0.0012511
0.000277191
0.00126338
0.000271051
0.00127535
0.00026458
0.001287
0.000257767
0.00129831
0.000250606
0.00130927
0.000243087
0.00131986
0.000235202
0.00133007
0.000226943
0.00133989
0.000218303
0.00134928
0.000209273
0.00135825
0.000199845
0.00136676
0.000190014
0.00137481
0.000179773
0.00138238
0.000169115
0.00138945
0.000158036
0.00139601
0.000146531
0.00140203
0.000134598
0.0014075
0.000122232
0.00141241
0.000109435
0.00141674
9.62043e-05
0.00142048
8.25424e-05
0.0014236
6.84519e-05
0.00142611
5.39384e-05
0.00142798
3.90051e-05
0.0014292
2.36581e-05
0.00142976
7.93029e-06
0.00142964
-8.21893e-06
0.00142884
-2.47798e-05
0.00142734
-4.17118e-05
0.00142512
-5.89916e-05
0.00142219
-7.65957e-05
0.00141853
-9.44972e-05
0.00141413
-0.000112666
0.00140899
-0.000131067
0.0014031
-0.000149663
0.00139646
-0.000168411
0.00138907
-0.000187262
0.00138092
-0.000206163
0.00137202
-0.000225054
0.00136238
-0.000243869
0.00135199
-0.000262534
0.00134087
-0.00028097
0.00132903
-0.000299087
0.00131649
-0.000316793
0.00130327
-0.00033398
0.0012894
-0.000350537
0.0012749
-0.000366337
0.00125982
-0.000381252
0.00124421
-0.000395135
0.00122814
-0.00040784
0.00121165
-0.000419193
0.00119479
-0.000428914
0.0011775
-0.000436865
-0.000442191
0.00116035
0.00102848
0.00031911
-0.00101269
0.00104414
0.000317215
0.00105965
0.000315068
0.00107499
0.000312692
0.00109014
0.000310087
0.0011051
0.000307244
0.00111987
0.000304159
0.00113442
0.000300826
0.00114877
0.00029724
0.00116291
0.000293397
0.00117682
0.00028929
0.0011905
0.000284913
0.00120394
0.00028026
0.00121713
0.000275321
0.00123005
0.00027009
0.00124268
0.000264557
0.00125502
0.000258713
0.00126705
0.000252552
0.00127875
0.000246063
0.00129012
0.000239239
0.00130113
0.000232071
0.00131178
0.000224553
0.00132205
0.000216674
0.00133193
0.000208429
0.00134139
0.000199809
0.00135043
0.000190807
0.00135902
0.000181417
0.00136716
0.000171633
0.00137483
0.000161448
0.00138201
0.000150857
0.00138868
0.000139857
0.00139484
0.000128442
0.00140046
0.000116612
0.00140553
0.000104364
0.00141004
9.16981e-05
0.00141396
7.86147e-05
0.0014173
6.51164e-05
0.00142003
5.12084e-05
0.00142214
3.68933e-05
0.00142362
2.21771e-05
0.00142446
7.09103e-06
0.00142465
-8.40654e-06
0.00142417
-2.43022e-05
0.00142302
-4.05581e-05
0.00142118
-5.71523e-05
0.00141865
-7.4062e-05
0.00141541
-9.12618e-05
0.00141147
-0.000108722
0.00140681
-0.000126411
0.00140144
-0.00014429
0.00139534
-0.000162318
0.00138853
-0.000180448
0.001381
-0.000198629
0.00137274
-0.000216803
0.00136378
-0.000234906
0.00135411
-0.000252866
0.00134375
-0.00027061
0.00133271
-0.000288049
0.00132102
-0.000305095
0.00130868
-0.000321645
0.00129574
-0.000337595
0.00128223
-0.000352823
0.00126819
-0.000367212
0.00125367
-0.00038062
0.00123873
-0.000392899
0.00122341
-0.000403869
0.00120777
-0.000413282
0.00119189
-0.000420976
-0.000426845
0.00117654
0.00101956
0.000303314
-0.00100377
0.00103525
0.000301531
0.0010508
0.00029951
0.00106622
0.00029728
0.00108147
0.000294838
0.00109653
0.000292176
0.00111141
0.000289285
0.00112608
0.000286159
0.00114053
0.000282789
0.00115475
0.000279169
0.00116875
0.000275294
0.00118251
0.000271158
0.00119601
0.000266753
0.00120926
0.000262073
0.00122224
0.000257112
0.00123493
0.000251861
0.00124733
0.000246313
0.00125943
0.000240459
0.0012712
0.000234292
0.00128263
0.000227804
0.00129372
0.000220986
0.00130444
0.000213831
0.00131478
0.00020633
0.00132474
0.000198477
0.00133428
0.000190264
0.0013434
0.000181683
0.00135209
0.000172729
0.00136033
0.000163395
0.0013681
0.000153675
0.0013754
0.000143565
0.00138219
0.000133059
0.00138848
0.000122153
0.00139425
0.000110846
0.00139948
9.91354e-05
0.00140415
8.70202e-05
0.00140827
7.45006e-05
0.00141181
6.15789e-05
0.00141475
4.826e-05
0.0014171
3.45452e-05
0.00141884
2.04414e-05
0.00141995
5.97741e-06
0.00142044
-8.89067e-06
0.00142028
-2.41433e-05
0.00141947
-3.97465e-05
0.00141799
-5.56794e-05
0.00141585
-7.19205e-05
0.00141303
-8.84452e-05
0.00140954
-0.000105225
0.00140536
-0.000122229
0.00140049
-0.000139421
0.00139493
-0.00015676
0.00138868
-0.000174202
0.00138175
-0.000191697
0.00137414
-0.000209188
0.00136585
-0.000226615
0.00135689
-0.00024391
0.00134728
-0.000261001
0.00133704
-0.000277804
0.00132618
-0.000294234
0.00131472
-0.000310194
0.00130271
-0.000325585
0.00129018
-0.000340293
0.00127718
-0.000354204
0.00126373
-0.000367172
0.00124988
-0.000379048
0.00123567
-0.000389667
0.00122123
-0.000398836
0.00120678
-0.000406525
-0.000413004
0.00119294
0.00101141
0.000287526
-0.000995627
0.0010271
0.000285849
0.00104266
0.000283945
0.0010581
0.000281844
0.00107339
0.000279547
0.00108852
0.000277046
0.00110347
0.000274333
0.00111823
0.0002714
0.00113278
0.000268238
0.00114711
0.00026484
0.00116121
0.000261198
0.00117506
0.000257304
0.00118866
0.000253154
0.00120199
0.000248738
0.00121505
0.000244051
0.00122783
0.000239086
0.00124031
0.000233834
0.00125248
0.00022829
0.00126433
0.000222444
0.00127584
0.000216291
0.001287
0.000209821
0.00129781
0.000203027
0.00130824
0.000195901
0.00131828
0.000188437
0.00132791
0.000180627
0.00133713
0.000172464
0.00134592
0.00016394
0.00135427
0.000155051
0.00136215
0.00014579
0.00136956
0.000136152
0.00137649
0.000126132
0.00138292
0.000115727
0.00138883
0.000104933
0.00139422
9.37477e-05
0.00139907
8.21709e-05
0.00140337
7.02018e-05
0.0014071
5.78425e-05
0.00141026
4.5097e-05
0.00141284
3.19657e-05
0.00141483
1.8457e-05
0.00141621
4.59596e-06
0.00141698
-9.6639e-06
0.00141714
-2.4295e-05
0.00141666
-3.92681e-05
0.00141554
-5.45637e-05
0.00141378
-7.01611e-05
0.00141137
-8.6037e-05
0.00140831
-0.000102164
0.0014046
-0.000118512
0.00140022
-0.000135047
0.00139519
-0.000151728
0.0013895
-0.000168514
0.00138316
-0.000185357
0.00137618
-0.000202201
0.00136855
-0.000218991
0.0013603
-0.000235659
0.00135144
-0.000252138
0.00134198
-0.000268347
0.00133195
-0.000284207
0.00132138
-0.000299625
0.00131031
-0.000314507
0.00129875
-0.00032874
0.00128676
-0.00034221
0.00127435
-0.000354765
0.00126157
-0.000366269
0.0012485
-0.000376592
0.00123525
-0.000385588
0.00122211
-0.00039338
-0.000400307
0.00120941
0.00100408
0.000271735
-0.000988285
0.00101976
0.000270166
0.00103533
0.000268377
0.00105077
0.000266402
0.00106607
0.000264243
0.00108123
0.000261892
0.00109622
0.000259344
0.00111103
0.00025659
0.00112564
0.000253622
0.00114005
0.000250433
0.00115423
0.000247015
0.00116818
0.000243359
0.00118187
0.000239459
0.0011953
0.000235306
0.00120846
0.000230894
0.00122133
0.000226215
0.0012339
0.000221262
0.00124616
0.000216028
0.0012581
0.000210505
0.00126971
0.000204686
0.00128096
0.000198564
0.00129186
0.00019213
0.00130238
0.000185378
0.00131252
0.000178301
0.00132226
0.000170891
0.00133158
0.00016314
0.00134048
0.000155044
0.00134893
0.000146595
0.00135694
0.000137787
0.00136447
0.000128615
0.00137153
0.000119074
0.0013781
0.00010916
0.00138416
9.88695e-05
0.00138971
8.82003e-05
0.00139473
7.71507e-05
0.00139921
6.57199e-05
0.00140315
5.39096e-05
0.00140652
4.1723e-05
0.00140933
2.91595e-05
0.00141155
1.62293e-05
0.0014132
2.95228e-06
0.00141425
-1.07189e-05
0.00141471
-2.47491e-05
0.00141455
-3.91143e-05
0.00141378
-5.37959e-05
0.0014124
-6.87745e-05
0.00141039
-8.40276e-05
0.00140775
-9.95294e-05
0.00140449
-0.000115251
0.0014006
-0.000131158
0.00139609
-0.000147214
0.00139095
-0.000163377
0.0013852
-0.000179603
0.00137883
-0.000195837
0.00137187
-0.000212027
0.00136432
-0.000228109
0.0013562
-0.000244017
0.00134753
-0.000259677
0.00133833
-0.000275012
0.00132864
-0.000289934
0.00131849
-0.00030435
0.00130789
-0.000318149
0.0012969
-0.000331213
0.00128554
-0.000343403
0.00127388
-0.000354617
0.00126206
-0.000364766
0.00125016
-0.000373688
0.00123835
-0.000381577
-0.000387933
0.00122598
0.000997551
0.000255927
-0.000981743
0.00101325
0.000254468
0.00102883
0.000252797
0.00104428
0.000250949
0.0010596
0.000248926
0.00107477
0.000246724
0.00108978
0.000244335
0.00110461
0.000241752
0.00111927
0.00023897
0.00113372
0.00023598
0.00114796
0.000232774
0.00116197
0.000229347
0.00117574
0.000225688
0.00118926
0.000221791
0.0012025
0.000217649
0.00121547
0.000213253
0.00122813
0.000208595
0.00124049
0.00020367
0.00125253
0.000198468
0.00126423
0.000192983
0.00127559
0.000187207
0.00128659
0.000181133
0.00129721
0.000174753
0.00130745
0.00016806
0.00131729
0.000161047
0.00132673
0.000153708
0.00133574
0.000146034
0.00134431
0.000138021
0.00135244
0.000129661
0.0013601
0.000120949
0.0013673
0.000111881
0.00137401
0.000102451
0.00138022
9.26563e-05
0.00138593
8.24936e-05
0.00139111
7.19611e-05
0.00139578
6.10574e-05
0.0013999
4.97839e-05
0.00140348
3.81425e-05
0.00140651
2.61318e-05
0.00140898
1.37647e-05
0.00141088
1.05192e-06
0.00141221
-1.2048e-05
0.00141295
-2.54979e-05
0.00141312
-3.92768e-05
0.00141269
-5.33677e-05
0.00141167
-6.77522e-05
0.00141005
-8.24088e-05
0.00140783
-9.73128e-05
0.00140502
-0.000112436
0.00140161
-0.000127747
0.0013976
-0.00014321
0.00139301
-0.000158785
0.00138784
-0.000174429
0.00138209
-0.000190091
0.00137578
-0.00020572
0.00136893
-0.000221255
0.00136155
-0.000236636
0.00135366
-0.00025179
0.00134529
-0.000266644
0.00133647
-0.000281112
0.00132722
-0.000295102
0.00131758
-0.000308506
0.00130758
-0.000321221
0.00129732
-0.000333139
0.00128691
-0.000344205
0.00127648
-0.000354338
0.0012661
-0.000363311
0.00125583
-0.000371304
-0.000377331
0.00124523
0.000991855
0.000240095
-0.000976022
0.00100758
0.000238745
0.00102318
0.000237193
0.00103866
0.000235472
0.001054
0.000233587
0.00106919
0.000231533
0.00108422
0.000229303
0.00109908
0.000226891
0.00111376
0.00022429
0.00112825
0.000221494
0.00114253
0.000218496
0.00115658
0.000215288
0.00117041
0.000211864
0.00118399
0.000208215
0.0011973
0.000204334
0.00121034
0.000200214
0.00122309
0.000195847
0.00123553
0.000191225
0.00124766
0.00018634
0.00125946
0.000181185
0.00127091
0.000175752
0.00128201
0.000170034
0.00129274
0.000164024
0.00130309
0.000157713
0.00131304
0.000151095
0.00132259
0.000144162
0.00133171
0.000136909
0.0013404
0.000129327
0.00134865
0.000121411
0.00135645
0.000113155
0.00136378
0.000104553
0.00137063
9.56009e-05
0.00137699
8.62944e-05
0.00138285
7.663e-05
0.00138821
6.66052e-05
0.00139305
5.62182e-05
0.00139736
4.54699e-05
0.00140114
3.43608e-05
0.00140439
2.28891e-05
0.00140708
1.10703e-05
0.00140923
-1.0977e-06
0.00141083
-1.3644e-05
0.00141186
-2.65335e-05
0.00141233
-3.97476e-05
0.00141224
-5.32709e-05
0.00141157
-6.7086e-05
0.00141033
-8.11725e-05
0.00140853
-9.55069e-05
0.00140615
-0.000110062
0.00140321
-0.000124808
0.00139972
-0.000139711
0.00139566
-0.000154732
0.00139106
-0.00016983
0.00138593
-0.000184957
0.00138028
-0.000200065
0.00137411
-0.000215095
0.00136747
-0.000229989
0.00136036
-0.000244678
0.0013528
-0.000259091
0.00134484
-0.000273145
0.00133649
-0.000286753
0.00132781
-0.000299827
0.00131888
-0.000312293
0.00130982
-0.000324079
0.00130074
-0.000335129
0.0012917
-0.000345293
0.00128264
-0.000354255
0.00127354
-0.0003622
-0.000366948
0.00126316
0.000987015
0.000224232
-0.000971152
0.00100277
0.000222991
0.00101841
0.000221556
0.00103392
0.000219963
0.00104929
0.000218215
0.00106451
0.000216309
0.00107958
0.000214238
0.00109447
0.000211996
0.00110919
0.000209576
0.00112371
0.000206973
0.00113802
0.00020418
0.00115212
0.00020119
0.00116599
0.000197996
0.00117961
0.00019459
0.00119298
0.000190966
0.00120608
0.000187116
0.00121889
0.000183032
0.00123141
0.000178708
0.00124362
0.000174134
0.0012555
0.000169304
0.00126704
0.00016421
0.00127823
0.000158844
0.00128905
0.000153199
0.0012995
0.000147266
0.00130956
0.000141039
0.00131921
0.00013451
0.00132845
0.000127672
0.00133726
0.000120518
0.00134563
0.000113041
0.00135355
0.000105235
0.001361
9.70945e-05
0.00136799
8.8614e-05
0.0013745
7.97888e-05
0.00138051
7.06149e-05
0.00138603
6.1089e-05
0.00139104
5.1209e-05
0.00139553
4.09751e-05
0.00139951
3.03858e-05
0.00140296
1.94401e-05
0.00140587
8.15514e-06
0.00140826
-3.48676e-06
0.00141011
-1.54976e-05
0.00141143
-2.78462e-05
0.0014122
-4.05171e-05
0.00141242
-5.34962e-05
0.0014121
-6.67671e-05
0.00141124
-8.03104e-05
0.00140984
-9.41038e-05
0.0014079
-0.000108122
0.00140542
-0.000122335
0.00140242
-0.000136711
0.0013989
-0.000151213
0.00139487
-0.000165802
0.00139035
-0.000180432
0.00138534
-0.000195056
0.00137987
-0.00020962
0.00137394
-0.000224066
0.00136759
-0.00023833
0.00136085
-0.000252344
0.00135374
-0.000266034
0.00134632
-0.000279332
0.00133867
-0.000292177
0.00133089
-0.000304517
0.00132308
-0.000316269
0.00131524
-0.000327285
0.00130725
-0.00033731
0.00129907
-0.000346075
0.00129031
-0.000353438
-0.000358212
0.00128158
0.000983062
0.00020833
-0.00096716
0.000998854
0.000207199
0.00101453
0.00020588
0.00103008
0.000204413
0.00104549
0.000202802
0.00106076
0.000201043
0.00107587
0.000199131
0.0010908
0.000197058
0.00110556
0.000194819
0.00112012
0.000192409
0.00113449
0.00018982
0.00114863
0.000187046
0.00116254
0.00018408
0.00117622
0.000180916
0.00118964
0.000177546
0.00120279
0.000173963
0.00121567
0.000170159
0.00122825
0.000166128
0.00124052
0.000161862
0.00125247
0.000157353
0.00126409
0.000152592
0.00127536
0.000147574
0.00128627
0.000142289
0.0012968
0.00013673
0.00130695
0.00013089
0.0013167
0.00012476
0.00132604
0.000118333
0.00133496
0.000111602
0.00134344
0.00010456
0.00135147
9.71993e-05
0.00135905
8.95146e-05
0.00136617
8.14996e-05
0.00137281
7.3149e-05
0.00137897
6.44582e-05
0.00138463
5.54229e-05
0.0013898
4.60406e-05
0.00139446
3.63103e-05
0.00139862
2.62286e-05
0.00140226
1.57969e-05
0.00140539
5.02983e-06
0.00140801
-6.10372e-06
0.00141011
-1.75963e-05
0.00141168
-2.94235e-05
0.00141274
-4.15728e-05
0.00141327
-5.40311e-05
0.00141329
-6.67832e-05
0.00141279
-7.98108e-05
0.00141178
-9.30924e-05
0.00141026
-0.000106604
0.00140824
-0.000120317
0.00140573
-0.0001342
0.00140274
-0.000148219
0.00139927
-0.000162335
0.00139534
-0.000176505
0.00139097
-0.000190684
0.00138617
-0.00020482
0.00138096
-0.000218858
0.00137538
-0.000232742
0.00136945
-0.000246413
0.00136323
-0.000259816
0.0013568
-0.0002729
0.00135023
-0.00028561
0.00134356
-0.000297853
0.00133676
-0.000309468
0.00132971
-0.00032023
0.00132225
-0.000329853
0.00131434
-0.000338164
0.0013056
-0.000344703
-0.000349144
0.00129654
0.000980026
0.000192381
-0.000964077
0.000995866
0.000191359
0.00101159
0.000190156
0.00102719
0.000188815
0.00104265
0.000187341
0.00105796
0.000185729
0.00107312
0.000183973
0.00108811
0.000182069
0.00110292
0.00018001
0.00111754
0.000177791
0.00113195
0.000175406
0.00114615
0.000172847
0.00116012
0.000170109
0.00117385
0.000167185
0.00118733
0.000164067
0.00120054
0.00016075
0.00121348
0.000157225
0.00122612
0.000153486
0.00123846
0.000149524
0.00125048
0.000145333
0.00126216
0.000140904
0.00127351
0.00013623
0.00128449
0.000131303
0.00129511
0.000126114
0.00130534
0.000120657
0.00131518
0.000114923
0.00132461
0.000108903
0.00133362
0.000102592
0.0013422
9.59796e-05
0.00135034
8.90603e-05
0.00135803
8.18265e-05
0.00136526
7.42717e-05
0.00137201
6.63899e-05
0.0013783
5.81752e-05
0.0013841
4.96229e-05
0.00138941
4.07297e-05
0.00139423
3.14928e-05
0.00139855
2.19073e-05
0.00140237
1.19783e-05
0.00140568
1.71066e-06
0.00140851
-8.93029e-06
0.00141084
-1.99219e-05
0.00141266
-3.12479e-05
0.00141399
-4.28978e-05
0.00141482
-5.48599e-05
0.00141515
-6.71197e-05
0.001415
-7.96598e-05
0.00141437
-9.24597e-05
0.00141326
-0.000105496
0.00141169
-0.000118742
0.00140965
-0.000132167
0.00140717
-0.000145738
0.00140426
-0.000159418
0.00140092
-0.000173166
0.00139717
-0.000186938
0.00139304
-0.000200688
0.00138855
-0.000214369
0.00138374
-0.000227934
0.00137866
-0.000241337
0.00137338
-0.00025453
0.00136792
-0.000267443
0.00136228
-0.000279964
0.00135635
-0.000291925
0.00135
-0.000303125
0.00134314
-0.000313364
0.0013357
-0.00032241
0.00132783
-0.000330299
0.00131977
-0.000336642
-0.000342504
0.00131313
0.000977946
0.000176379
-0.000961944
0.00099384
0.000175465
0.00100962
0.000174378
0.00102527
0.000173162
0.00104079
0.000171823
0.00105616
0.000170356
0.00107138
0.000168757
0.00108643
0.000167021
0.0011013
0.000165141
0.00111597
0.000163113
0.00113045
0.000160929
0.00114471
0.000158585
0.00115875
0.000156074
0.00117254
0.000153389
0.00118609
0.000150523
0.00119937
0.00014747
0.00121237
0.000144223
0.00122508
0.000140774
0.00123749
0.000137117
0.00124958
0.000133242
0.00126134
0.000129143
0.00127276
0.000124812
0.00128382
0.000120241
0.00129451
0.000115422
0.00130482
0.000110346
0.00131474
0.000105005
0.00132425
9.93908e-05
0.00133335
9.34958e-05
0.00134202
8.73114e-05
0.00135025
8.08297e-05
0.00135803
7.40431e-05
0.00136536
6.69442e-05
0.00137222
5.9526e-05
0.00137862
5.17818e-05
0.00138453