/*--------------------------------*- C++ -*----------------------------------*\
| =========                 |                                                 |
| \\      /  F ield         | OpenFOAM: The Open Source CFD Toolbox           |
|  \\    /   O peration     | Version:  2312                                  |
|   \\  /    A nd           | Website:  www.openfoam.com                      |
|    \\/     M anipulation  |                                                 |
\*---------------------------------------------------------------------------*/
FoamFile
{
    version     2.0;
    format      ascii;
    arch        "LSB;label=32;scalar=64";
    class       volVectorField;
    location    "1200";
    object      U;
}
// * * * * * * * * * * * * * * * * * * * * * * * * * * * * * * * * * * * * * //

dimensions      [0 1 -1 0 0 0 0];

internalField   nonuniform List<vector> 
76025
(
(0.0386623 -0.00641563 0)
(0.0388593 -0.00641111 3.70459e-22)
(0.039054 -0.00640339 0)
(0.0392482 -0.00638987 0)
(0.0394595 -0.00637064 -5.2946e-22)
(0.0396769 -0.00633029 -8.42646e-22)
(0.0399055 -0.00629803 1.33545e-21)
(0.0401354 -0.00624862 -5.22462e-22)
(0.0403524 -0.00620121 -1.01004e-22)
(0.0405646 -0.00614369 6.34662e-23)
(0.0407845 -0.00607495 2.81442e-23)
(0.0410105 -0.0059944 -3.37247e-23)
(0.0412326 -0.00590988 4.4223e-23)
(0.0414453 -0.00581411 0)
(0.0416469 -0.00570388 -1.20701e-22)
(0.0418503 -0.0055948 0)
(0.04205 -0.0054639 0)
(0.0422536 -0.00533316 0)
(0.0424498 -0.00518747 -2.22865e-22)
(0.042643 -0.00503973 3.02714e-22)
(0.0428293 -0.00487568 3.38043e-22)
(0.0430079 -0.00470836 1.05983e-21)
(0.0431765 -0.00452931 -7.35682e-22)
(0.0433389 -0.00433615 -1.31846e-21)
(0.0434967 -0.00413901 -6.46935e-23)
(0.0436515 -0.00393456 -5.83309e-22)
(0.0437953 -0.00371175 1.59556e-21)
(0.0439379 -0.00348504 -1.62497e-21)
(0.0440754 -0.0032407 5.65663e-22)
(0.044205 -0.00298138 -5.9806e-22)
(0.0443231 -0.00273584 -6.35801e-22)
(0.0444402 -0.00247046 1.41607e-21)
(0.0445457 -0.00219133 -2.16818e-21)
(0.0446458 -0.00191004 -3.93013e-22)
(0.0447348 -0.00161409 2.0069e-21)
(0.0448168 -0.00131363 1.55176e-23)
(0.044894 -0.000993843 -4.13341e-22)
(0.0449646 -0.000667351 2.33642e-22)
(0.0450238 -0.000343119 1.87131e-23)
(0.0450694 -3.5715e-06 -3.57142e-22)
(0.0451023 0.00034154 2.45748e-22)
(0.0451307 0.000700425 -1.20126e-22)
(0.0451518 0.00107121 2.41234e-22)
(0.0451552 0.00144557 -4.84546e-22)
(0.0451413 0.00183061 -5.05018e-22)
(0.0451166 0.00222408 9.41232e-22)
(0.0450825 0.00262945 1.00239e-21)
(0.0450242 0.00304141 -3.03166e-21)
(0.0449429 0.00346364 1.89179e-21)
(0.0448479 0.00389467 -8.35036e-23)
(0.0447324 0.00433391 -4.8588e-21)
(0.0445911 0.00478414 -1.83423e-21)
(0.0444256 0.00524056 1.97644e-21)
(0.0442309 0.00570734 0)
(0.0439932 0.00617641 -1.76028e-21)
(0.0437218 0.0066612 -1.90424e-21)
(0.043424 0.00714592 7.15323e-23)
(0.043079 0.00764654 -1.77512e-21)
(0.0426971 0.00816248 1.72737e-21)
(0.0422786 0.00869598 -4.9597e-21)
(0.0418435 0.00917785 -3.56964e-21)
(0.0413214 0.0097125 -3.95324e-22)
(0.0407539 0.0102526 0)
(0.0401428 0.0107922 8.10043e-21)
(0.0394679 0.0113265 -2.78325e-21)
(0.038723 0.0118793 1.59763e-21)
(0.0379469 0.0124557 -2.91048e-21)
(0.0371037 0.0129907 3.34728e-21)
(0.0362589 0.0135672 6.19395e-21)
(0.0386659 -0.00677572 4.06233e-22)
(0.0388791 -0.00677282 1.04426e-21)
(0.039089 -0.00676361 -1.42053e-21)
(0.0392978 -0.00674857 0)
(0.0395083 -0.00672514 1.19652e-21)
(0.0397282 -0.00669239 -1.60485e-22)
(0.0399522 -0.00665167 -7.67024e-22)
(0.0401853 -0.00660255 0)
(0.0404207 -0.00654649 3.25226e-23)
(0.0406533 -0.00648315 -6.5984e-23)
(0.0408845 -0.00641072 2.73862e-23)
(0.0411179 -0.00632857 3.8385e-23)
(0.0413525 -0.00623782 0)
(0.0415866 -0.00613725 0)
(0.0418174 -0.0060269 -3.66031e-22)
(0.0420405 -0.00590825 8.68426e-22)
(0.0422621 -0.00577815 2.47867e-22)
(0.0424795 -0.00563992 -8.46576e-22)
(0.0426947 -0.00549095 5.59957e-22)
(0.0429044 -0.00533304 -3.12463e-22)
(0.0431119 -0.00516406 4.36772e-22)
(0.0433137 -0.00498645 -7.87461e-22)
(0.0435079 -0.00479853 9.3429e-22)
(0.0436952 -0.00459931 -1.48703e-21)
(0.0438763 -0.00439026 1.012e-21)
(0.0440516 -0.00417185 1.68636e-21)
(0.0442213 -0.00394343 -1.1617e-21)
(0.0443799 -0.00370473 0)
(0.0445331 -0.00345423 0)
(0.044681 -0.00319299 -7.4309e-22)
(0.0448204 -0.00292411 0)
(0.0449524 -0.00264489 -8.15887e-22)
(0.0450769 -0.00235514 8.27231e-22)
(0.0451904 -0.00205594 -1.27831e-21)
(0.0452954 -0.00174546 3.89647e-23)
(0.0453903 -0.00142471 -4.39829e-22)
(0.0454781 -0.00109095 0)
(0.0455574 -0.00075059 -9.91514e-22)
(0.0456251 -0.000402217 7.73141e-22)
(0.0456804 -4.42652e-05 -6.48389e-22)
(0.0457229 0.000326083 4.05103e-22)
(0.045754 0.000707375 -1.66309e-24)
(0.0457717 0.00109247 1.46145e-22)
(0.045773 0.00148563 -1.3618e-22)
(0.045758 0.00188866 1.12095e-21)
(0.0457268 0.00230373 -5.67931e-22)
(0.0456784 0.00272586 -5.93551e-22)
(0.0456087 0.00315482 1.04098e-21)
(0.045517 0.00359718 3.23824e-21)
(0.045405 0.0040508 -4.29974e-23)
(0.0452702 0.00451188 3.14596e-21)
(0.0451092 0.00498195 -1.05112e-21)
(0.0449211 0.00545995 -3.03218e-21)
(0.0447036 0.00594421 2.06824e-21)
(0.0444532 0.00643383 0)
(0.044167 0.00694053 6.06219e-21)
(0.0438502 0.00745077 -1.65913e-23)
(0.0434945 0.00797204 -1.98632e-21)
(0.0431012 0.00850228 -2.05757e-21)
(0.0426719 0.00903951 0)
(0.0422018 0.0095802 1.72666e-21)
(0.0416796 0.010129 5.48472e-21)
(0.0411082 0.0106854 0)
(0.0404902 0.0112473 -3.49973e-21)
(0.039818 0.0118134 2.27292e-21)
(0.0390766 0.0123959 -3.65763e-21)
(0.0382865 0.0129924 1.82754e-21)
(0.0374227 0.0135562 -3.40472e-21)
(0.0365213 0.0142366 -3.34994e-21)
(0.0386519 -0.00715483 -1.96277e-21)
(0.0388834 -0.00714994 1.19388e-21)
(0.0391128 -0.00713917 -3.07636e-22)
(0.0393424 -0.00712261 1.01635e-21)
(0.0395705 -0.00709808 -1.22722e-21)
(0.0397995 -0.00706536 -6.62532e-22)
(0.0400305 -0.00702343 7.86579e-22)
(0.040266 -0.00697281 0)
(0.0405067 -0.00691311 3.64825e-23)
(0.0407506 -0.00684453 0)
(0.0409952 -0.00676692 4.95919e-23)
(0.0412401 -0.00668022 -5.06563e-23)
(0.0414854 -0.00658423 -6.72276e-22)
(0.041731 -0.0064786 5.35048e-22)
(0.0419766 -0.00636304 -1.73069e-22)
(0.0422198 -0.00623727 -7.28377e-22)
(0.0424602 -0.00610169 2.61536e-22)
(0.0426968 -0.00595599 2.92582e-22)
(0.0429295 -0.00580047 1.14389e-21)
(0.0431577 -0.00563444 -7.57049e-22)
(0.0433814 -0.00545808 -4.68288e-22)
(0.0436002 -0.00527123 9.93452e-22)
(0.0438134 -0.00507378 -4.46499e-22)
(0.044021 -0.00486515 -5.88581e-22)
(0.0442224 -0.00464554 0)
(0.0444168 -0.00441544 6.67637e-22)
(0.0446038 -0.00417517 6.70592e-22)
(0.0447827 -0.00392394 -6.38023e-22)
(0.0449536 -0.0036615 0)
(0.0451171 -0.00338831 1.57153e-21)
(0.0452731 -0.00310414 -8.60936e-22)
(0.04542 -0.00280979 -7.77959e-23)
(0.0455573 -0.00250527 0)
(0.0456844 -0.00218987 4.46225e-22)
(0.0458015 -0.00186378 -1.44488e-21)
(0.0459081 -0.00152686 9.90157e-22)
(0.0460038 -0.00117919 0)
(0.0460885 -0.000821765 7.99803e-22)
(0.0461614 -0.000454329 -8.36906e-22)
(0.046221 -7.71115e-05 -1.3715e-22)
(0.0462668 0.000311628 0)
(0.0462979 0.000708881 -2.96868e-22)
(0.0463138 0.00111362 -1.49425e-22)
(0.0463132 0.00152786 1.36957e-22)
(0.0462951 0.0019519 -8.68386e-22)
(0.0462587 0.00238588 -6.19503e-22)
(0.046203 0.0028287 1.14008e-21)
(0.0461264 0.00328102 -1.1848e-21)
(0.0460277 0.00374417 1.22379e-21)
(0.0459065 0.00421703 -1.17033e-21)
(0.0457617 0.00469829 -1.11764e-21)
(0.0455911 0.00518843 2.41609e-21)
(0.0453934 0.00568719 0)
(0.0451665 0.00619409 2.38312e-21)
(0.0449081 0.00670963 1.0986e-22)
(0.0446164 0.00723607 -2.24414e-21)
(0.0442917 0.00777065 -2.2164e-21)
(0.0439311 0.00831468 4.40876e-21)
(0.0435329 0.00886825 -1.10877e-22)
(0.0430959 0.0094309 2.27692e-21)
(0.0426181 0.00999881 -4.52183e-21)
(0.0420934 0.0105742 -2.37161e-21)
(0.0415192 0.0111599 -2.05687e-23)
(0.0408948 0.0117544 -2.11507e-21)
(0.0402162 0.012357 -1.87475e-21)
(0.0394745 0.0129688 -6.52224e-21)
(0.0386794 0.0135974 0)
(0.0378038 0.0142015 -2.07469e-21)
(0.0369116 0.0149337 2.06861e-21)
(0.0386429 -0.00756003 0)
(0.0388839 -0.00755405 3.6295e-22)
(0.0391273 -0.00754168 1.43619e-21)
(0.0393742 -0.00752324 -1.11353e-21)
(0.0396219 -0.00749703 -5.1396e-22)
(0.0398691 -0.00746229 8.74631e-22)
(0.0401162 -0.00741854 -1.29638e-22)
(0.0403638 -0.0073657 4.70401e-23)
(0.0406132 -0.00730341 3.8835e-23)
(0.0408653 -0.00723146 -1.94732e-22)
(0.0411196 -0.00714971 2.37081e-22)
(0.0413753 -0.00705812 5.5709e-22)
(0.0416316 -0.00695664 -4.83658e-23)
(0.0418882 -0.00684514 -8.2355e-22)
(0.0421448 -0.00672335 7.31944e-22)
(0.0424008 -0.00659104 -3.21205e-22)
(0.0426553 -0.00644829 3.65519e-22)
(0.0429073 -0.00629496 4.09452e-22)
(0.043156 -0.00613112 -1.28266e-21)
(0.0434005 -0.00595656 3.91042e-22)
(0.0436404 -0.0057712 4.77161e-22)
(0.0438753 -0.00557482 0)
(0.0441047 -0.00536729 1.28485e-21)
(0.0443283 -0.00514845 -6.22741e-22)
(0.0445456 -0.00491831 -1.38077e-21)
(0.044756 -0.00467701 -1.50217e-21)
(0.044959 -0.00442451 2.97081e-21)
(0.0451542 -0.0041606 -1.58535e-21)
(0.0453411 -0.00388531 0)
(0.0455193 -0.00359867 -1.74234e-21)
(0.0456886 -0.00330096 -5.49612e-23)
(0.0458482 -0.00299247 1.83738e-21)
(0.0459975 -0.00267303 -9.99958e-22)
(0.0461361 -0.00234245 2.57816e-21)
(0.0462636 -0.00200079 -4.92279e-22)
(0.0463796 -0.00164811 0)
(0.0464837 -0.00128449 0)
(0.0465753 -0.000910066 3.05002e-22)
(0.0466537 -0.000525212 2.90156e-22)
(0.0467177 -0.000130092 1.6183e-22)
(0.0467672 0.000276401 -5.2011e-24)
(0.0468008 0.000691957 1.55246e-22)
(0.0468181 0.0011164 0)
(0.0468181 0.00155053 -2.55892e-23)
(0.0467996 0.00199455 0)
(0.0467619 0.00244859 5.99637e-22)
(0.0467042 0.00291247 4.09624e-24)
(0.0466251 0.0033861 -1.99142e-21)
(0.0465236 0.00386977 0)
(0.0463988 0.00436335 -1.28534e-21)
(0.0462496 0.00486638 1.27706e-21)
(0.0460746 0.00537875 -2.4426e-21)
(0.0458722 0.00590034 0)
(0.0456406 0.00643098 -7.54621e-21)
(0.0453782 0.00697082 1.06304e-22)
(0.0450831 0.00752068 2.49442e-21)
(0.0447544 0.00808022 2.46963e-21)
(0.0443902 0.00864943 0)
(0.0439884 0.0092284 0)
(0.0435475 0.00981669 -2.30532e-21)
(0.043065 0.0104132 4.57784e-21)
(0.0425368 0.0110187 4.54844e-21)
(0.04196 0.011634 0)
(0.0413322 0.0122593 -4.98668e-21)
(0.0406506 0.0128943 0)
(0.039908 0.0135386 6.82473e-21)
(0.0391112 0.0142009 -2.36469e-21)
(0.0382337 0.0148444 -2.35865e-21)
(0.0373397 0.0156172 -2.61103e-21)
(0.0386453 -0.00799086 0)
(0.0388943 -0.00798537 0)
(0.0391467 -0.00797257 2.67058e-22)
(0.0394051 -0.00795299 -8.25376e-22)
(0.0396674 -0.00792508 9.83045e-22)
(0.0399314 -0.0078881 -1.46274e-22)
(0.0401963 -0.0078418 0)
(0.0404612 -0.00778602 -4.81836e-23)
(0.0407263 -0.00772052 0)
(0.0409918 -0.00764501 1.87784e-22)
(0.0412583 -0.00755923 1.44642e-22)
(0.0415256 -0.00746296 -2.83897e-22)
(0.0417935 -0.00735609 0)
(0.0420615 -0.00723853 5.71146e-22)
(0.0423293 -0.00711015 -1.85461e-21)
(0.0425965 -0.00697081 1.36342e-21)
(0.0428626 -0.00682043 -1.97851e-21)
(0.0431268 -0.0066589 4.29612e-22)
(0.0433885 -0.00648616 -5.25611e-22)
(0.0436468 -0.00630214 5.06282e-22)
(0.043901 -0.00610673 5.90402e-22)
(0.0441504 -0.00589983 -1.86874e-21)
(0.0443943 -0.00568135 -1.34174e-21)
(0.0446324 -0.00545121 0)
(0.0448639 -0.00520932 1.55088e-21)
(0.0450885 -0.00495569 8.41839e-22)
(0.0453055 -0.0046903 -2.44041e-21)
(0.0455145 -0.00441311 8.42542e-22)
(0.0457149 -0.00412414 -1.88149e-21)
(0.0459061 -0.00382342 2.81202e-21)
(0.0460877 -0.00351109 -1.0492e-21)
(0.0462592 -0.00318725 5.45231e-22)
(0.0464198 -0.00285188 0)
(0.046569 -0.00250497 -5.39622e-22)
(0.0467065 -0.00214655 -5.58764e-22)
(0.0468315 -0.00177669 0)
(0.0469437 -0.00139548 6.46276e-22)
(0.0470424 -0.00100304 -9.53438e-22)
(0.0471269 -0.000599663 6.52357e-22)
(0.0471962 -0.000185474 -3.39446e-22)
(0.0472502 0.000240503 -6.08881e-24)
(0.0472876 0.000675942 -2.71621e-22)
(0.0473075 0.00112053 8.76948e-23)
(0.0473095 0.00157507 3.40582e-22)
(0.0472924 0.00203974 2.55592e-23)
(0.0472555 0.00251457 2.12428e-21)
(0.0471978 0.00299948 0)
(0.0471184 0.00349437 1.36039e-21)
(0.0470162 0.00399936 -5.49624e-23)
(0.0468902 0.00451445 -1.40349e-21)
(0.0467394 0.00503939 0)
(0.0465625 0.00557406 -1.39553e-21)
(0.046358 0.00611841 1.38843e-21)
(0.0461243 0.00667247 2.65453e-21)
(0.04586 0.00723639 0)
(0.0455633 0.00781053 -5.35458e-21)
(0.0452329 0.00839493 5.43907e-21)
(0.0448669 0.00898957 -5.40999e-21)
(0.0444635 0.00959447 -1.17374e-22)
(0.0440205 0.0102096 0)
(0.0435356 0.0108345 -2.65926e-21)
(0.0430055 0.0114695 2.52841e-21)
(0.0424273 0.0121151 2.90092e-21)
(0.0417977 0.0127718 5.03865e-21)
(0.0411145 0.0134399 -8.18423e-21)
(0.0403714 0.0141178 5.28692e-21)
(0.0395752 0.0148147 -2.65081e-21)
(0.0386978 0.0154965 2.95014e-21)
(0.0378121 0.0163092 7.63611e-21)
(0.0386461 -0.00844746 -1.35506e-21)
(0.03891 -0.00844298 2.11366e-22)
(0.0391749 -0.00843046 1.10535e-21)
(0.0394449 -0.00841046 0)
(0.0397192 -0.00838136 -1.6616e-22)
(0.0399968 -0.00834243 0)
(0.0402767 -0.0082935 2.73233e-23)
(0.0405582 -0.00823447 -1.0628e-22)
(0.0408405 -0.00816519 1.69448e-22)
(0.0411229 -0.00808546 -1.44358e-22)
(0.0414054 -0.00799503 -1.45903e-22)
(0.0416877 -0.00789363 -2.50234e-22)
(0.0419697 -0.00778107 0)
(0.0422513 -0.00765718 0)
(0.0425321 -0.00752183 3.44843e-22)
(0.0428118 -0.0073749 3.93416e-22)
(0.04309 -0.0072163 -9.94265e-22)
(0.0433663 -0.00704593 9.92155e-22)
(0.04364 -0.00686371 1.14172e-21)
(0.0439105 -0.00666956 -1.28114e-21)
(0.0441773 -0.00646342 2.58101e-21)
(0.0444395 -0.00624522 1.78303e-23)
(0.0446964 -0.00601489 -1.5443e-21)
(0.0449475 -0.00577238 -8.43935e-22)
(0.0451921 -0.00551764 -1.73823e-21)
(0.0454295 -0.00525066 1.74047e-21)
(0.0456593 -0.00497143 1.91417e-21)
(0.0458807 -0.00467996 -1.91872e-21)
(0.0460932 -0.00437626 0)
(0.0462962 -0.00406037 0)
(0.0464892 -0.00373237 2.77134e-21)
(0.0466715 -0.00339232 8.42691e-23)
(0.0468425 -0.00304031 -1.17557e-21)
(0.0470016 -0.00267638 -1.2514e-21)
(0.0471483 -0.00230058 1.25982e-21)
(0.0472819 -0.00191303 0)
(0.0474019 -0.00151384 -6.53479e-22)
(0.0475076 -0.00110308 -1.06977e-21)
(0.0475983 -0.000680973 7.12711e-22)
(0.0476734 -0.000247699 -1.42425e-23)
(0.0477324 0.000197617 -5.94847e-23)
(0.0477741 0.000652704 2.80112e-22)
(0.0477978 0.00111721 2.00102e-22)
(0.0478029 0.00159203 3.87666e-22)
(0.0477886 0.00207726 -1.90446e-21)
(0.0477539 0.00257291 2.49151e-23)
(0.047698 0.00307893 0)
(0.04762 0.00359527 -1.60445e-21)
(0.0475189 0.00412198 4.62878e-21)
(0.0473936 0.00465905 -3.13167e-21)
(0.0472432 0.0052064 -1.53371e-21)
(0.0470664 0.00576397 -6.36136e-23)
(0.0468619 0.00633176 -1.45941e-21)
(0.0466282 0.00690988 -2.16443e-26)
(0.0463638 0.00749843 3.01731e-21)
(0.0460671 0.00809766 -3.13033e-21)
(0.0457365 0.00870769 -2.98695e-21)
(0.0453704 0.00932863 5.95464e-21)
(0.0449666 0.00996053 -1.2565e-22)
(0.044523 0.0106035 2.94998e-21)
(0.0440373 0.0112574 -2.95015e-21)
(0.0435064 0.0119227 2.81209e-21)
(0.0429274 0.0125995 -5.6097e-21)
(0.0422972 0.0132884 -2.92808e-21)
(0.0416137 0.0139899 5.60685e-21)
(0.0408711 0.014702 -3.2232e-21)
(0.040076 0.0154339 -9.12928e-21)
(0.0391974 0.0161524 -2.68129e-21)
(0.0383137 0.0169938 0)
(0.038632 -0.00893196 0)
(0.0389172 -0.00892829 -2.70098e-22)
(0.0392012 -0.00891613 -3.67234e-23)
(0.0394882 -0.00889596 0)
(0.039778 -0.00886601 0)
(0.0400702 -0.00882547 -3.00485e-23)
(0.0403647 -0.00877415 -9.39025e-23)
(0.0406613 -0.00871195 2.43499e-22)
(0.0409596 -0.00863878 -1.25777e-22)
(0.0412587 -0.0085545 1.47585e-22)
(0.0415582 -0.00845892 0)
(0.0418574 -0.00835182 2.5564e-22)
(0.0421559 -0.008233 -3.7071e-22)
(0.0424535 -0.00810227 0)
(0.0427496 -0.00795948 0)
(0.0430441 -0.00780448 5.15543e-22)
(0.0433365 -0.00763716 1.06738e-22)
(0.0436263 -0.00745743 -1.15114e-21)
(0.0439132 -0.00726519 -1.28245e-21)
(0.0441965 -0.00706039 1.35598e-21)
(0.0444759 -0.00684296 7.15796e-22)
(0.0447505 -0.00661284 3.26669e-21)
(0.0450198 -0.00637 5.3523e-23)
(0.0452832 -0.00611441 -9.89123e-22)
(0.0455399 -0.00584605 1.84926e-21)
(0.0457894 -0.00556493 -9.93149e-22)
(0.046031 -0.00527106 2.03938e-21)
(0.0462641 -0.00496447 0)
(0.0464879 -0.00464519 0)
(0.0467019 -0.00431329 0)
(0.0469054 -0.00396883 -5.88051e-22)
(0.0470979 -0.0036119 -1.23593e-21)
(0.0472786 -0.0032426 1.2941e-21)
(0.047447 -0.00286101 1.37408e-21)
(0.0476025 -0.00246722 -1.3826e-21)
(0.0477443 -0.00206134 0)
(0.0478719 -0.00164349 7.50437e-22)
(0.0479847 -0.00121374 -3.88584e-22)
(0.0480819 -0.000772298 0)
(0.0481629 -0.000319376 4.0394e-22)
(0.0482273 0.00014587 -7.70033e-23)
(0.0482739 0.000621217 5.19047e-23)
(0.048302 0.00110629 -2.02144e-22)
(0.0483111 0.00160201 0)
(0.0483003 0.00210843 -8.45142e-22)
(0.0482688 0.00262555 8.38291e-22)
(0.0482157 0.00315334 0)
(0.0481401 0.00369177 -6.5094e-23)
(0.0480412 0.00424086 5.61129e-23)
(0.0479179 0.0048006 1.61509e-21)
(0.0477691 0.00537102 0)
(0.0475937 0.0059521 -1.27275e-22)
(0.0473904 0.00654392 -1.59995e-21)
(0.0471577 0.00714659 -5.03451e-21)
(0.0468944 0.00776026 -1.3447e-22)
(0.0465987 0.00838516 3.16234e-21)
(0.046269 0.00902144 0)
(0.0459035 0.00966932 0)
(0.0455002 0.0103289 3.39234e-21)
(0.0450569 0.0110004 0)
(0.0445712 0.0116839 0)
(0.0440403 0.0123798 -1.45922e-22)
(0.0434615 0.0130884 -3.23556e-21)
(0.0428317 0.01381 -6.6123e-21)
(0.042149 0.0145453 6.6255e-21)
(0.0414078 0.0152921 -5.8563e-22)
(0.0406134 0.0160606 2.96648e-21)
(0.0397307 0.0168151 3.27682e-21)
(0.038841 0.0176956 0)
(0.0386008 -0.00944756 0)
(0.0389088 -0.00944434 2.77064e-22)
(0.0392154 -0.00943224 -5.45084e-22)
(0.0395242 -0.00941172 2.1802e-22)
(0.0398344 -0.00938088 0)
(0.0401455 -0.0093388 -1.60407e-23)
(0.0404579 -0.00928522 2.45529e-22)
(0.0407715 -0.00922 1.22435e-22)
(0.0410864 -0.00914303 -8.48753e-22)
(0.0414023 -0.00905418 1.42394e-22)
(0.0417188 -0.00895327 -3.27272e-22)
(0.0420352 -0.00884014 -3.8718e-22)
(0.042351 -0.00871462 1.25874e-21)
(0.0426657 -0.00857653 -1.87117e-21)
(0.0429789 -0.00842573 9.90743e-22)
(0.0432899 -0.00826209 -6.73895e-22)
(0.0435983 -0.00808549 2.54447e-21)
(0.0439037 -0.00789581 -5.92175e-22)
(0.0442056 -0.00769298 8.39921e-22)
(0.0445035 -0.00747692 -7.34567e-22)
(0.0447967 -0.00724757 1.07726e-22)
(0.0450849 -0.0070049 -5.43155e-21)
(0.0453673 -0.00674889 -1.01662e-21)
(0.0456434 -0.00647953 -1.01879e-22)
(0.0459126 -0.00619682 3.17502e-21)
(0.0461742 -0.00590078 -1.06114e-21)
(0.0464276 -0.00559147 2.362e-21)
(0.046672 -0.00526892 -3.62646e-21)
(0.0469069 -0.00493321 0)
(0.0471317 -0.00458441 -1.3238e-21)
(0.0473455 -0.00422262 1.3281e-21)
(0.0475479 -0.00384793 5.61685e-23)
(0.0477381 -0.00346047 -7.51314e-22)
(0.0479155 -0.00306034 -7.74838e-22)
(0.0480795 -0.00264766 2.34982e-21)
(0.0482293 -0.00222257 -1.56156e-21)
(0.0483645 -0.00178519 1.2422e-21)
(0.0484843 -0.0013356 -1.66825e-21)
(0.0485881 -0.000874039 8.49068e-22)
(0.0486752 -0.000400718 -2.11857e-22)
(0.0487451 8.51879e-05 0)
(0.0487969 0.000581442 2.28797e-22)
(0.0488298 0.00108771 -2.26694e-22)
(0.0488432 0.0016049 -4.59263e-22)
(0.0488364 0.00213307 1.37451e-21)
(0.0488086 0.00267222 -9.43212e-22)
(0.0487589 0.0032223 -9.11991e-22)
(0.0486864 0.00378333 0)
(0.0485903 0.0043553 -3.72838e-21)
(0.0484696 0.00493828 3.64668e-21)
(0.0483231 0.00553229 -1.74876e-21)
(0.0481498 0.00613742 1.7449e-21)
(0.0479484 0.00675377 1.8768e-21)
(0.0477176 0.0073815 3.54184e-21)
(0.0474558 0.00802079 3.46575e-21)
(0.0471616 0.00867189 0)
(0.0468333 0.00933499 -3.72012e-21)
(0.046469 0.0100104 0)
(0.0460667 0.0106982 1.34665e-22)
(0.0456243 0.0113989 -3.40399e-21)
(0.0451394 0.0121125 3.54811e-21)
(0.0446093 0.0128395 3.40389e-21)
(0.0440316 0.0135802 -3.69659e-21)
(0.0434033 0.014335 -1.43545e-22)
(0.0427226 0.0151045 1.47477e-22)
(0.0419834 0.0158871 1.05623e-20)
(0.0411894 0.0166924 3.73942e-21)
(0.0403043 0.0174892 3.60381e-21)
(0.0394206 0.0184137 -3.57399e-21)
(0.038559 -0.00999763 0)
(0.038888 -0.00999449 0)
(0.0392166 -0.00998204 -2.46808e-22)
(0.0395482 -0.00996078 3.5707e-22)
(0.0398813 -0.0099287 -5.96918e-24)
(0.0402149 -0.00988479 0)
(0.0405488 -0.00982873 0)
(0.0408831 -0.00976036 2.07991e-22)
(0.0412177 -0.00967951 -5.45484e-22)
(0.0415526 -0.00958601 -1.96623e-22)
(0.0418876 -0.00947967 1.80121e-21)
(0.0422223 -0.00936032 -3.98996e-22)
(0.0425562 -0.00922779 5.14637e-22)
(0.042889 -0.00908195 -1.04062e-21)
(0.0432199 -0.00892266 6.54629e-22)
(0.0435486 -0.00874981 0)
(0.0438744 -0.00856329 0)
(0.0441968 -0.008363 5.49488e-23)
(0.0445153 -0.00814886 -2.52806e-21)
(0.0448292 -0.00792082 8.59307e-22)
(0.0451381 -0.00767883 -1.01017e-21)
(0.0454413 -0.00742286 9.68616e-22)
(0.0457383 -0.00715291 1.07175e-21)
(0.0460284 -0.00686898 -1.01512e-21)
(0.046311 -0.00657111 -1.12752e-21)
(0.0465856 -0.00625933 0)
(0.0468514 -0.00593371 0)
(0.0471078 -0.00559434 1.97704e-21)
(0.0473542 -0.00524129 0)
(0.04759 -0.00487468 1.45779e-21)
(0.0478143 -0.00449462 -1.46197e-21)
(0.0480267 -0.00410125 -7.3797e-22)
(0.0482265 -0.00369471 7.61721e-22)
(0.048413 -0.00327513 1.63367e-21)
(0.0485855 -0.00284266 -8.08529e-22)
(0.0487435 -0.00239747 -8.71721e-22)
(0.0488862 -0.0019397 9.10844e-22)
(0.0490131 -0.00146943 0)
(0.0491235 -0.000986951 0)
(0.0492166 -0.000492458 2.48251e-22)
(0.0492923 1.48596e-05 0)
(0.0493493 0.000532685 0)
(0.0493871 0.00106082 -7.54927e-22)
(0.0494051 0.00160014 1.00845e-21)
(0.0494025 0.00215069 -5.15447e-22)
(0.0493786 0.00271247 9.59345e-22)
(0.0493325 0.00328545 0)
(0.0492634 0.00386966 3.02172e-21)
(0.0491703 0.00446511 -6.33066e-23)
(0.0490524 0.00507189 0)
(0.0489086 0.00569008 -3.9575e-21)
(0.0487377 0.00631981 -7.22047e-23)
(0.0485385 0.0069612 -3.8605e-21)
(0.0483097 0.0076145 -2.03654e-21)
(0.0480499 0.00827987 -3.91409e-21)
(0.0477575 0.00895765 3.89967e-21)
(0.0474309 0.00964805 3.75012e-21)
(0.0470682 0.0103514 0)
(0.0466674 0.011068 -3.87632e-21)
(0.0462265 0.0117983 1.45473e-22)
(0.0457431 0.0125425 0)
(0.0452147 0.013301 0)
(0.0446391 0.0140742 3.71991e-21)
(0.0440134 0.0148625 0)
(0.0433351 0.0156667 0)
(0.0425982 0.0164856 -3.90652e-21)
(0.0418041 0.0173273 -3.58435e-21)
(0.0409241 0.0181709 -4.10487e-21)
(0.0400445 0.0191027 0)
(0.038514 -0.0105855 0)
(0.0388624 -0.0105822 0)
(0.0392114 -0.010569 0)
(0.0395645 -0.0105466 9.38519e-24)
(0.0399201 -0.0105128 -1.32604e-22)
(0.0402767 -0.0104665 -1.43038e-22)
(0.0406339 -0.0104075 2.78745e-22)
(0.0409912 -0.0103355 -2.12548e-22)
(0.0413483 -0.0102504 3.5045e-22)
(0.0417051 -0.0101519 7.66062e-22)
(0.0420614 -0.0100398 0)
(0.0424167 -0.00991393 0)
(0.0427707 -0.00977407 -6.30421e-23)
(0.043123 -0.0096201 1.91235e-21)
(0.0434732 -0.00945187 -2.90725e-21)
(0.0438208 -0.00926929 -1.31728e-22)
(0.0441651 -0.00907227 1.60427e-21)
(0.0445057 -0.00886072 8.50797e-22)
(0.044842 -0.00863459 -9.97099e-23)
(0.0451733 -0.00839382 0)
(0.0454991 -0.0081384 2.16026e-21)
(0.0458187 -0.00786831 0)
(0.0461315 -0.00758357 2.39364e-21)
(0.0464369 -0.00728421 -3.75666e-21)
(0.0467342 -0.00697028 3.92599e-21)
(0.0470229 -0.00664186 1.42502e-21)
(0.0473022 -0.00629902 -2.18496e-21)
(0.0475716 -0.00594187 2.23656e-21)
(0.0478303 -0.00557054 -1.49998e-21)
(0.0480777 -0.00518516 0)
(0.0483132 -0.00478588 -1.65384e-21)
(0.0485362 -0.00437287 -9.21395e-22)
(0.0487459 -0.00394628 1.71071e-21)
(0.0489417 -0.0035063 -1.78688e-21)
(0.0491231 -0.0030531 9.26568e-22)
(0.0492894 -0.00258687 -9.31627e-22)
(0.0494398 -0.00210779 -4.6585e-22)
(0.0495739 -0.00161596 5.14381e-22)
(0.049691 -0.00111169 2.47847e-22)
(0.0497904 -0.000595169 -7.66117e-22)
(0.0498718 -6.56343e-05 -6.89436e-23)
(0.0499342 0.000474479 0)
(0.0499769 0.00102521 2.59118e-22)
(0.0499995 0.00158736 -5.19135e-22)
(0.0500012 0.00216096 5.19658e-22)
(0.0499812 0.00274601 0)
(0.0499387 0.00334249 0)
(0.049873 0.00395045 1.11849e-21)
(0.049783 0.00456994 -2.14189e-21)
(0.049668 0.00520106 -4.37391e-21)
(0.0495268 0.00584393 8.56783e-21)
(0.0493585 0.00649873 -2.20921e-21)
(0.0491617 0.00716563 2.12778e-21)
(0.0489351 0.0078449 2.05189e-21)
(0.0486775 0.00853678 -4.24532e-21)
(0.0483871 0.00924163 4.22903e-21)
(0.0480626 0.00995971 0)
(0.0477019 0.0106915 -4.379e-21)
(0.0473032 0.0114372 1.6225e-22)
(0.0468645 0.0121975 4.20531e-21)
(0.0463835 0.0129726 0)
(0.0458579 0.013763 0)
(0.0452854 0.014569 0)
(0.0446627 0.0153914 8.60774e-21)
(0.0439867 0.0162308 4.40302e-21)
(0.043251 0.017086 4.0844e-21)
(0.0424586 0.0179656 -8.33773e-21)
(0.0415839 0.0188457 -3.40954e-22)
(0.0407311 0.019819 4.40319e-21)
(0.0384691 -0.0112146 0)
(0.0388372 -0.0112109 1.94274e-22)
(0.0392061 -0.0111967 -2.06046e-22)
(0.0395799 -0.0111728 -1.52164e-22)
(0.0399569 -0.0111368 2.46727e-22)
(0.0403358 -0.0110877 2.09164e-22)
(0.0407159 -0.0110252 2.8595e-22)
(0.0410965 -0.010949 0)
(0.0414772 -0.010859 -7.9442e-22)
(0.0418576 -0.0107549 -9.26968e-22)
(0.042237 -0.0106364 1.00282e-21)
(0.0426152 -0.0105035 -6.56071e-22)
(0.0429915 -0.0103557 7.94723e-22)
(0.0433657 -0.0101931 -5.59165e-22)
(0.0437371 -0.0100154 -3.36092e-21)
(0.0441054 -0.00982249 -1.40794e-22)
(0.0444699 -0.00961435 -1.38933e-22)
(0.0448302 -0.00939088 1.96088e-21)
(0.0451856 -0.00915203 1.02773e-21)
(0.0455356 -0.00889778 2.35215e-21)
(0.0458796 -0.00862812 -2.23111e-21)
(0.0462168 -0.00834306 0)
(0.0465466 -0.00804264 1.20746e-22)
(0.0468685 -0.00772692 0)
(0.0471817 -0.00739598 -1.38907e-21)
(0.0474855 -0.00704992 -1.44637e-21)
(0.0477794 -0.00668885 7.51431e-22)
(0.0480626 -0.00631292 0)
(0.0483346 -0.00592227 8.7487e-22)
(0.0485945 -0.00551708 1.7589e-21)
(0.0488419 -0.00509754 -1.76263e-21)
(0.0490761 -0.00466383 8.86929e-22)
(0.0492963 -0.00421617 -1.91799e-21)
(0.0495021 -0.00375476 3.84882e-21)
(0.0496927 -0.00327982 -9.8916e-22)
(0.0498675 -0.00279156 0)
(0.050026 -0.00229019 -5.46087e-22)
(0.0501675 -0.00177584 3.95483e-23)
(0.0502915 -0.00124888 8.21017e-22)
(0.0503972 -0.000709451 -7.01193e-22)
(0.0504845 -0.00015687 1.37828e-22)
(0.0505522 0.000406267 -4.41554e-22)
(0.0505999 0.000980353 2.88656e-22)
(0.0506271 0.00156603 0)
(0.050633 0.00216335 0)
(0.0506169 0.0027723 0)
(0.050578 0.00339289 1.20618e-21)
(0.0505155 0.00402517 1.2051e-21)
(0.0504287 0.00466921 0)
(0.0503166 0.00532517 2.31969e-21)
(0.0501782 0.00599318 2.47222e-21)
(0.0500124 0.00667348 2.39422e-21)
(0.0498181 0.00736627 0)
(0.049594 0.00807189 0)
(0.0493388 0.00879062 -4.59299e-21)
(0.049051 0.00952287 4.57465e-21)
(0.0487289 0.010269 0)
(0.0483709 0.0110295 4.40431e-21)
(0.0479751 0.0118047 -4.3976e-21)
(0.0475395 0.0125953 -4.73075e-21)
(0.0470619 0.0134015 4.55792e-21)
(0.0465401 0.0142241 -4.55549e-21)
(0.0459713 0.0150635 0)
(0.0453518 0.0159206 -4.40362e-21)
(0.0446779 0.0167959 1.73556e-22)
(0.0439439 0.0176883 -9.37084e-21)
(0.0431551 0.0186058 -9.39434e-21)
(0.0422874 0.0195219 9.04864e-21)
(0.0414605 0.0205241 -4.36441e-21)
(0.0384241 -0.0118884 6.52461e-23)
(0.0388134 -0.0118842 0)
(0.0392034 -0.0118689 1.3776e-23)
(0.0395986 -0.0118431 2.82438e-22)
(0.0399972 -0.0118046 -7.0392e-22)
(0.0403982 -0.0117523 2.02983e-22)
(0.0408008 -0.0116857 -2.92026e-22)
(0.0412044 -0.0116048 8.98809e-22)
(0.0416086 -0.0115092 -4.4688e-22)
(0.0420127 -0.0113988 -5.20925e-22)
(0.0424161 -0.0112732 -6.90036e-22)
(0.0428181 -0.0111324 2.17728e-21)
(0.0432182 -0.010976 -6.56969e-22)
(0.0436157 -0.0108039 2.71884e-21)
(0.0440102 -0.010616 1.03596e-21)
(0.044401 -0.010412 1.50497e-22)
(0.0447875 -0.010192 -2.07691e-21)
(0.0451692 -0.00995576 0)
(0.0455455 -0.00970337 0)
(0.0459157 -0.00943477 -1.34596e-21)
(0.0462792 -0.00914997 -1.28723e-21)
(0.0466354 -0.008849 -2.89206e-21)
(0.0469836 -0.00853193 1.4721e-21)
(0.0473231 -0.00819885 3.14467e-21)
(0.0476532 -0.00784986 -3.1411e-21)
(0.0479734 -0.0074851 8.69172e-22)
(0.0482828 -0.00710471 9.00159e-22)
(0.0485809 -0.00670888 0)
(0.0488669 -0.00629779 -8.86433e-22)
(0.0491403 -0.00587167 -1.92806e-21)
(0.0494003 -0.00543072 -5.27874e-23)
(0.0496463 -0.0049752 1.98865e-21)
(0.0498776 -0.00450534 -1.07673e-21)
(0.0500937 -0.00402139 0)
(0.050294 -0.00352361 5.66238e-22)
(0.0504778 -0.00301227 -5.79938e-22)
(0.0506446 -0.00248758 5.51408e-22)
(0.0507938 -0.00194973 -1.17119e-21)
(0.0509248 -0.00139913 0)
(0.0510369 -0.000835852 -1.58399e-22)
(0.0511301 -0.00025935 1.56111e-22)
(0.0512032 0.000327568 -2.44609e-22)
(0.0512559 0.000925768 9.41841e-22)
(0.0512877 0.0015357 -1.88561e-21)
(0.0512977 0.0021574 1.25041e-21)
(0.0512855 0.00279086 1.26063e-21)
(0.0512501 0.00343611 -1.16307e-21)
(0.051191 0.00409322 2.60319e-21)
(0.0511073 0.0047623 -2.49776e-21)
(0.0509982 0.00544351 -6.22001e-21)
(0.0508626 0.00613706 7.78177e-23)
(0.0506997 0.00684322 -2.4079e-21)
(0.0505081 0.00756224 0)
(0.0502869 0.00829451 0)
(0.0500345 0.00904036 -4.95759e-21)
(0.0497497 0.00980029 7.32301e-21)
(0.0494308 0.0105747 -4.929e-21)
(0.0490762 0.0113641 0)
(0.0486841 0.012169 5.10604e-21)
(0.0482526 0.0129901 9.67543e-21)
(0.0477794 0.0138278 -4.73544e-21)
(0.047262 0.0146831 -8.99126e-24)
(0.0466973 0.0155563 4.92474e-21)
(0.0460814 0.0164487 -1.85211e-22)
(0.0454113 0.0173606 -9.89642e-21)
(0.0446843 0.0182915 9.73654e-21)
(0.0439044 0.019248 4.77793e-21)
(0.0430534 0.0202063 0)
(0.042234 0.0212656 0)
(0.038378 -0.0126106 -6.67187e-23)
(0.0387905 -0.0126058 7.2282e-23)
(0.0392035 -0.0125892 -5.98495e-23)
(0.0396216 -0.0125614 0)
(0.0400434 -0.0125202 -1.0598e-22)
(0.0404674 -0.0124642 -7.63195e-22)
(0.0408932 -0.0123932 5.21683e-22)
(0.0413202 -0.0123069 -1.37946e-21)
(0.041748 -0.0122051 1.09283e-21)
(0.042176 -0.0120877 0)
(0.0426034 -0.0119543 2.98967e-22)
(0.0430297 -0.0118048 0)
(0.043454 -0.0116389 1.04745e-21)
(0.0438758 -0.0114564 -2.82925e-21)
(0.0442942 -0.0112573 0)
(0.0447087 -0.0110413 0)
(0.0451185 -0.0108083 0)
(0.0455231 -0.0105584 -1.97577e-21)
(0.0459216 -0.0102914 2.64381e-21)
(0.0463135 -0.0100074 1.36741e-21)
(0.0466981 -0.00970643 0)
(0.0470747 -0.00938847 0)
(0.0474425 -0.00905365 0)
(0.047801 -0.00870206 -4.36955e-21)
(0.0481493 -0.00833387 5.27644e-21)
(0.0484868 -0.00794922 -2.68287e-21)
(0.0488128 -0.00754833 -1.90275e-21)
(0.0491267 -0.00713139 1.99133e-21)
(0.0494277 -0.00669864 -1.99199e-21)
(0.0497152 -0.00625035 1.08483e-21)
(0.0499885 -0.00578679 -2.16965e-21)
(0.050247 -0.00530822 1.02845e-21)
(0.05049 -0.00481496 2.26315e-21)
(0.050717 -0.00430729 1.20378e-21)
(0.0509273 -0.00378552 -5.71892e-22)