/*--------------------------------*- C++ -*----------------------------------*\
| =========                 |                                                 |
| \\      /  F ield         | OpenFOAM: The Open Source CFD Toolbox           |
|  \\    /   O peration     | Version:  2312                                  |
|   \\  /    A nd           | Website:  www.openfoam.com                      |
|    \\/     M anipulation  |                                                 |
\*---------------------------------------------------------------------------*/
FoamFile
{
    version     2.0;
    format      ascii;
    arch        "LSB;label=32;scalar=64";
    class       volScalarField;
    location    "1100";
    object      k;
}
// * * * * * * * * * * * * * * * * * * * * * * * * * * * * * * * * * * * * * //

dimensions      [0 2 -2 0 0 0 0];

internalField   nonuniform List<scalar> 
76025
(
5.14742e-06
5.15151e-06
5.15531e-06
5.15853e-06
5.1602e-06
5.16599e-06
5.16759e-06
5.17239e-06
5.17533e-06
5.18047e-06
5.18582e-06
5.19186e-06
5.19798e-06
5.20262e-06
5.20864e-06
5.21446e-06
5.22045e-06
5.22921e-06
5.2351e-06
5.24356e-06
5.25192e-06
5.2607e-06
5.26801e-06
5.27747e-06
5.28684e-06
5.29664e-06
5.31027e-06
5.32296e-06
5.34013e-06
5.35578e-06
5.37349e-06
5.39432e-06
5.41935e-06
5.4459e-06
5.47558e-06
5.50663e-06
5.54349e-06
5.58603e-06
5.63252e-06
5.68328e-06
5.73757e-06
5.80251e-06
5.87493e-06
5.95297e-06
6.03718e-06
6.13066e-06
6.23178e-06
6.34179e-06
6.46169e-06
6.58857e-06
6.72912e-06
6.88083e-06
7.04739e-06
7.22143e-06
7.43517e-06
7.65519e-06
7.91701e-06
8.21044e-06
8.55827e-06
8.96661e-06
9.43834e-06
1.00037e-05
1.0672e-05
1.14805e-05
1.24791e-05
1.36427e-05
1.49944e-05
1.6673e-05
1.83656e-05
5.25432e-06
5.26025e-06
5.26605e-06
5.27223e-06
5.27659e-06
5.28387e-06
5.29049e-06
5.29735e-06
5.30299e-06
5.30819e-06
5.31349e-06
5.31938e-06
5.32605e-06
5.33282e-06
5.34079e-06
5.34845e-06
5.35712e-06
5.36618e-06
5.37607e-06
5.38617e-06
5.39739e-06
5.40949e-06
5.42214e-06
5.43583e-06
5.45088e-06
5.46619e-06
5.48351e-06
5.50189e-06
5.52219e-06
5.54491e-06
5.56997e-06
5.59659e-06
5.62692e-06
5.65936e-06
5.69546e-06
5.73524e-06
5.77897e-06
5.828e-06
5.88105e-06
5.9392e-06
6.00351e-06
6.07386e-06
6.15136e-06
6.2349e-06
6.3265e-06
6.42615e-06
6.53458e-06
6.65176e-06
6.7795e-06
6.91978e-06
7.07285e-06
7.24347e-06
7.43178e-06
7.64473e-06
7.88272e-06
8.15672e-06
8.46892e-06
8.8298e-06
9.24955e-06
9.73914e-06
1.03182e-05
1.09915e-05
1.17938e-05
1.27343e-05
1.38504e-05
1.51531e-05
1.67151e-05
1.85193e-05
2.06126e-05
5.38697e-06
5.39323e-06
5.39991e-06
5.40766e-06
5.41501e-06
5.4236e-06
5.43274e-06
5.44193e-06
5.45056e-06
5.45859e-06
5.46634e-06
5.47412e-06
5.48254e-06
5.49129e-06
5.50114e-06
5.51142e-06
5.52266e-06
5.53446e-06
5.54722e-06
5.56067e-06
5.57503e-06
5.59041e-06
5.6069e-06
5.62446e-06
5.64347e-06
5.66355e-06
5.68525e-06
5.70863e-06
5.73417e-06
5.76204e-06
5.79281e-06
5.82594e-06
5.86213e-06
5.90147e-06
5.9444e-06
5.99131e-06
6.04258e-06
6.09873e-06
6.15996e-06
6.22657e-06
6.29935e-06
6.3788e-06
6.46556e-06
6.55975e-06
6.66204e-06
6.77331e-06
6.8945e-06
7.02657e-06
7.17136e-06
7.33074e-06
7.50726e-06
7.70385e-06
7.92446e-06
8.17269e-06
8.45431e-06
8.77591e-06
9.14492e-06
9.57101e-06
1.00663e-05
1.06442e-05
1.13215e-05
1.21143e-05
1.30458e-05
1.41349e-05
1.54167e-05
1.6908e-05
1.86481e-05
2.06478e-05
2.29299e-05
5.55055e-06
5.55685e-06
5.5638e-06
5.57179e-06
5.58044e-06
5.59003e-06
5.60045e-06
5.61129e-06
5.62217e-06
5.63287e-06
5.64354e-06
5.65427e-06
5.6655e-06
5.67719e-06
5.68976e-06
5.70308e-06
5.71737e-06
5.73253e-06
5.74864e-06
5.76578e-06
5.78398e-06
5.8033e-06
5.82396e-06
5.84617e-06
5.87017e-06
5.89605e-06
5.9238e-06
5.95345e-06
5.98522e-06
6.0192e-06
6.05578e-06
6.09511e-06
6.1376e-06
6.18363e-06
6.23354e-06
6.28779e-06
6.34674e-06
6.41085e-06
6.48051e-06
6.55612e-06
6.63838e-06
6.72788e-06
6.82553e-06
6.93162e-06
7.04703e-06
7.17293e-06
7.31058e-06
7.46163e-06
7.62803e-06
7.81248e-06
8.01782e-06
8.24801e-06
8.50714e-06
8.80074e-06
9.1349e-06
9.51796e-06
9.95871e-06
1.04688e-05
1.10609e-05
1.17505e-05
1.25541e-05
1.34895e-05
1.45767e-05
1.58363e-05
1.72956e-05
1.89668e-05
2.08933e-05
2.30571e-05
2.5517e-05
5.74849e-06
5.75564e-06
5.76332e-06
5.7718e-06
5.78114e-06
5.79143e-06
5.80267e-06
5.81469e-06
5.82727e-06
5.84021e-06
5.85354e-06
5.86724e-06
5.88154e-06
5.89645e-06
5.91222e-06
5.9288e-06
5.94641e-06
5.96507e-06
5.98488e-06
6.00595e-06
6.02838e-06
6.05222e-06
6.07767e-06
6.10496e-06
6.13438e-06
6.16605e-06
6.20009e-06
6.23661e-06
6.27573e-06
6.3176e-06
6.36243e-06
6.41042e-06
6.46181e-06
6.51689e-06
6.57592e-06
6.63931e-06
6.70742e-06
6.78081e-06
6.86002e-06
6.94577e-06
7.03884e-06
7.14015e-06
7.25077e-06
7.37147e-06
7.50333e-06
7.64784e-06
7.80672e-06
7.98212e-06
8.17655e-06
8.39332e-06
8.63605e-06
8.90951e-06
9.21885e-06
9.57084e-06
9.9728e-06
1.04344e-05
1.09657e-05
1.15796e-05
1.22892e-05
1.31108e-05
1.40587e-05
1.51531e-05
1.64078e-05
1.78482e-05
1.94873e-05
2.13487e-05
2.34495e-05
2.57698e-05
2.83732e-05
5.98604e-06
5.99497e-06
6.00433e-06
6.01426e-06
6.02492e-06
6.03642e-06
6.04884e-06
6.06217e-06
6.07637e-06
6.09135e-06
6.10709e-06
6.12359e-06
6.14093e-06
6.15914e-06
6.17834e-06
6.19852e-06
6.21983e-06
6.24237e-06
6.2662e-06
6.29154e-06
6.31844e-06
6.34707e-06
6.37761e-06
6.41021e-06
6.44522e-06
6.48277e-06
6.52301e-06
6.56627e-06
6.61302e-06
6.66375e-06
6.71869e-06
6.77784e-06
6.84095e-06
6.90784e-06
6.97848e-06
7.05311e-06
7.1322e-06
7.21654e-06
7.30704e-06
7.40481e-06
7.51094e-06
7.6268e-06
7.75363e-06
7.89291e-06
8.04588e-06
8.2145e-06
8.401e-06
8.60818e-06
8.83925e-06
9.0983e-06
9.38989e-06
9.7198e-06
1.00944e-05
1.05216e-05
1.101e-05
1.15704e-05
1.22136e-05
1.29531e-05
1.38015e-05
1.47749e-05
1.5886e-05
1.71545e-05
1.85905e-05
2.02206e-05
2.20439e-05
2.40932e-05
2.6346e-05
2.88029e-05
3.15119e-05
6.27093e-06
6.28235e-06
6.2942e-06
6.30656e-06
6.31955e-06
6.33325e-06
6.34778e-06
6.36321e-06
6.37959e-06
6.39693e-06
6.41528e-06
6.43467e-06
6.45516e-06
6.47678e-06
6.49963e-06
6.52372e-06
6.54913e-06
6.57599e-06
6.60435e-06
6.63442e-06
6.66628e-06
6.70014e-06
6.73615e-06
6.77456e-06
6.81552e-06
6.85931e-06
6.90617e-06
6.95644e-06
7.01063e-06
7.0693e-06
7.13284e-06
7.20135e-06
7.27469e-06
7.35269e-06
7.43535e-06
7.52284e-06
7.61571e-06
7.7148e-06
7.8212e-06
7.93621e-06
8.06118e-06
8.19782e-06
8.34763e-06
8.51288e-06
8.69507e-06
8.89673e-06
9.12085e-06
9.37099e-06
9.65131e-06
9.96681e-06
1.03232e-05
1.07273e-05
1.11867e-05
1.17103e-05
1.23076e-05
1.29898e-05
1.37679e-05
1.46548e-05
1.56624e-05
1.68053e-05
1.80952e-05
1.95499e-05
2.11762e-05
2.2998e-05
2.50004e-05
2.72221e-05
2.95892e-05
3.21656e-05
3.48772e-05
6.61423e-06
6.62863e-06
6.64356e-06
6.65909e-06
6.67528e-06
6.69218e-06
6.70988e-06
6.72847e-06
6.74802e-06
6.76861e-06
6.7903e-06
6.81319e-06
6.83736e-06
6.86289e-06
6.88985e-06
6.91833e-06
6.94838e-06
6.98015e-06
7.01371e-06
7.04923e-06
7.08686e-06
7.12673e-06
7.16915e-06
7.21417e-06
7.26204e-06
7.31306e-06
7.36754e-06
7.42586e-06
7.48846e-06
7.55586e-06
7.62848e-06
7.70667e-06
7.79056e-06
7.88032e-06
7.97624e-06
8.07869e-06
8.18834e-06
8.30614e-06
8.4333e-06
8.57124e-06
8.72163e-06
8.8864e-06
9.0676e-06
9.26815e-06
9.49008e-06
9.73668e-06
1.00118e-05
1.03199e-05
1.06662e-05
1.10568e-05
1.14984e-05
1.19987e-05
1.25662e-05
1.32102e-05
1.39404e-05
1.47675e-05
1.5702e-05
1.67558e-05
1.79397e-05
1.92669e-05
2.07473e-05
2.23955e-05
2.42138e-05
2.62184e-05
2.83822e-05
3.07403e-05
3.3177e-05
3.58336e-05
3.84097e-05
7.03133e-06
7.04918e-06
7.06772e-06
7.08701e-06
7.1071e-06
7.12802e-06
7.14984e-06
7.17264e-06
7.19647e-06
7.22142e-06
7.24758e-06
7.27504e-06
7.30393e-06
7.33434e-06
7.36639e-06
7.40018e-06
7.43584e-06
7.47349e-06
7.51327e-06
7.55536e-06
7.59991e-06
7.64719e-06
7.69725e-06
7.75034e-06
7.80672e-06
7.86671e-06
7.93068e-06
7.99903e-06
8.07223e-06
8.15078e-06
8.23519e-06
8.32594e-06
8.42349e-06
8.52833e-06
8.64109e-06
8.76246e-06
8.89339e-06
9.03506e-06
9.18893e-06
9.35672e-06
9.54051e-06
9.74264e-06
9.96597e-06
1.02137e-05
1.04894e-05
1.07968e-05
1.11406e-05
1.15263e-05
1.196e-05
1.24486e-05
1.29995e-05
1.36209e-05
1.43213e-05
1.51096e-05
1.59952e-05
1.69878e-05
1.80971e-05
1.93334e-05
2.07067e-05
2.22275e-05
2.39033e-05
2.57423e-05
2.77399e-05
2.99015e-05
3.21896e-05
3.4627e-05
3.70827e-05
3.97398e-05
4.2077e-05
7.5432e-06
7.56517e-06
7.58798e-06
7.61173e-06
7.63647e-06
7.66224e-06
7.68909e-06
7.71711e-06
7.74634e-06
7.77686e-06
7.80877e-06
7.84216e-06
7.87716e-06
7.91389e-06
7.95249e-06
7.9931e-06
8.03587e-06
8.08097e-06
8.12859e-06
8.17892e-06
8.23223e-06
8.28859e-06
8.34827e-06
8.41154e-06
8.47873e-06
8.55023e-06
8.62644e-06
8.70786e-06
8.79502e-06
8.88851e-06
8.98895e-06
9.09701e-06
9.21343e-06
9.33903e-06
9.47477e-06
9.62172e-06
9.78123e-06
9.9549e-06
1.01446e-05
1.03526e-05
1.05816e-05
1.08345e-05
1.1115e-05
1.1427e-05
1.17757e-05
1.21648e-05
1.25999e-05
1.30873e-05
1.36336e-05
1.42458e-05
1.49315e-05
1.56983e-05
1.65544e-05
1.75078e-05
1.8567e-05
1.97407e-05
2.10377e-05
2.24662e-05
2.40346e-05
2.57484e-05
2.76104e-05
2.96196e-05
3.1763e-05
3.40348e-05
3.63875e-05
3.88323e-05
4.12489e-05
4.37864e-05
4.58788e-05
8.17841e-06
8.20559e-06
8.23375e-06
8.26303e-06
8.29351e-06
8.32524e-06
8.3583e-06
8.39277e-06
8.42873e-06
8.46625e-06
8.50544e-06
8.5464e-06
8.58927e-06
8.63419e-06
8.68131e-06
8.73081e-06
8.78288e-06
8.83771e-06
8.8956e-06
8.95668e-06
9.02116e-06
9.08934e-06
9.16153e-06
9.23812e-06
9.31951e-06
9.4062e-06
9.49871e-06
9.59766e-06
9.70372e-06
9.81767e-06
9.94034e-06
1.00726e-05
1.02156e-05
1.03706e-05
1.05388e-05
1.07218e-05
1.09215e-05
1.11401e-05
1.138e-05
1.16441e-05
1.19359e-05
1.22591e-05
1.26179e-05
1.30173e-05
1.34624e-05
1.3959e-05
1.45118e-05
1.51271e-05
1.58114e-05
1.65714e-05
1.74139e-05
1.8346e-05
1.93748e-05
2.05077e-05
2.17522e-05
2.31152e-05
2.46042e-05
2.62235e-05
2.79781e-05
2.98656e-05
3.18832e-05
3.40182e-05
3.62501e-05
3.85649e-05
4.09027e-05
4.32785e-05
4.55833e-05
4.78655e-05
4.98314e-05
8.97662e-06
9.0107e-06
9.04595e-06
9.08251e-06
9.1205e-06
9.15998e-06
9.20108e-06
9.2439e-06
9.28855e-06
9.33514e-06
9.38379e-06
9.43464e-06
9.48784e-06
9.54357e-06
9.60202e-06
9.66342e-06
9.72799e-06
9.796e-06
9.86758e-06
9.94304e-06
1.00227e-05
1.0107e-05
1.01964e-05
1.02913e-05
1.03924e-05
1.05002e-05
1.06154e-05
1.0739e-05
1.08718e-05
1.10149e-05
1.11695e-05
1.13367e-05
1.15182e-05
1.17156e-05
1.19308e-05
1.21659e-05
1.24233e-05
1.27059e-05
1.30167e-05
1.33594e-05
1.37376e-05
1.41559e-05
1.46189e-05
1.51316e-05
1.56994e-05
1.63282e-05
1.7023e-05
1.77889e-05
1.86314e-05
1.95565e-05
2.05705e-05
2.16793e-05
2.28893e-05
2.42065e-05
2.5637e-05
2.71848e-05
2.88542e-05
3.06434e-05
3.25527e-05
3.45696e-05
3.66868e-05
3.88787e-05
4.11214e-05
4.3397e-05
4.56273e-05
4.7865e-05
4.99585e-05
5.19101e-05
5.37782e-05
9.99482e-06
1.00384e-05
1.00835e-05
1.01301e-05
1.01785e-05
1.02287e-05
1.02808e-05
1.03352e-05
1.03918e-05
1.04509e-05
1.05125e-05
1.05771e-05
1.06446e-05
1.07154e-05
1.07897e-05
1.08679e-05
1.09499e-05
1.10363e-05
1.11273e-05
1.12234e-05
1.1325e-05
1.14328e-05
1.15472e-05
1.1669e-05
1.17989e-05
1.19379e-05
1.20869e-05
1.22471e-05
1.24197e-05
1.26061e-05
1.28079e-05
1.30268e-05
1.32649e-05
1.35244e-05
1.38075e-05
1.4117e-05
1.44557e-05
1.48269e-05
1.52341e-05
1.56809e-05
1.61716e-05
1.67103e-05
1.73016e-05
1.79503e-05
1.86613e-05
1.94397e-05
2.02904e-05
2.122e-05
2.22299e-05
2.33265e-05
2.45147e-05
2.57994e-05
2.71856e-05
2.86767e-05
3.0276e-05
3.1983e-05
3.37973e-05
3.57095e-05
3.77153e-05
3.97918e-05
4.19305e-05
4.40913e-05
4.62552e-05
4.84015e-05
5.04275e-05
5.24704e-05
5.42322e-05
5.58458e-05
5.69065e-05
1.13189e-05
1.13762e-05
1.14355e-05
1.14968e-05
1.15603e-05
1.16262e-05
1.16947e-05
1.1766e-05
1.18404e-05
1.1918e-05
1.1999e-05
1.20839e-05
1.21729e-05
1.22662e-05
1.2364e-05
1.24669e-05
1.25752e-05
1.26894e-05
1.281e-05
1.29377e-05
1.3073e-05
1.32168e-05
1.33698e-05
1.3533e-05
1.37074e-05
1.38942e-05
1.40947e-05
1.43104e-05
1.45428e-05
1.47938e-05
1.50652e-05
1.53592e-05
1.56781e-05
1.60244e-05
1.64007e-05
1.68099e-05
1.72549e-05
1.7739e-05
1.82655e-05
1.8838e-05
1.94601e-05
2.01358e-05
2.0869e-05
2.1664e-05
2.2525e-05
2.34565e-05
2.4463e-05
2.55493e-05
2.67194e-05
2.7979e-05
2.93276e-05
3.07691e-05
3.23058e-05
3.39379e-05
3.56639e-05
3.74783e-05
3.9375e-05
4.13371e-05
4.3359e-05
4.54058e-05
4.74742e-05
4.95053e-05
5.14971e-05
5.34242e-05
5.51516e-05
5.69587e-05
5.82483e-05
5.85036e-05
5.79356e-05
1.30869e-05
1.31654e-05
1.32466e-05
1.33307e-05
1.3418e-05
1.35087e-05
1.36031e-05
1.37013e-05
1.3804e-05
1.3911e-05
1.40229e-05
1.41399e-05
1.42626e-05
1.43913e-05
1.45266e-05
1.46691e-05
1.48193e-05
1.49778e-05
1.51455e-05
1.5323e-05
1.55114e-05
1.57114e-05
1.59242e-05
1.61509e-05
1.63928e-05
1.66512e-05
1.69277e-05
1.72238e-05
1.75413e-05
1.7882e-05
1.8248e-05
1.86414e-05
1.90646e-05
1.95198e-05
2.00094e-05
2.05362e-05
2.11028e-05
2.1712e-05
2.23668e-05
2.30703e-05
2.38257e-05
2.46366e-05
2.55064e-05
2.64388e-05
2.74376e-05
2.85067e-05
2.96497e-05
3.08703e-05
3.21716e-05
3.35563e-05
3.50258e-05
3.65816e-05
3.82182e-05
3.99325e-05
4.17172e-05
4.35633e-05
4.54568e-05
4.73778e-05
4.93211e-05
5.12409e-05
5.31419e-05
5.49423e-05
5.66713e-05
5.8296e-05
5.96422e-05
6.05513e-05
6.01906e-05
5.92856e-05
5.78754e-05
1.55388e-05
1.56526e-05
1.57705e-05
1.5893e-05
1.602e-05
1.6152e-05
1.62892e-05
1.6432e-05
1.6581e-05
1.67364e-05
1.68988e-05
1.70687e-05
1.72467e-05
1.74332e-05
1.76291e-05
1.78348e-05
1.80512e-05
1.8279e-05
1.85191e-05
1.87723e-05
1.90396e-05
1.93219e-05
1.96203e-05
1.99359e-05
2.027e-05
2.06237e-05
2.09985e-05
2.13959e-05
2.18172e-05
2.22641e-05
2.27384e-05
2.32418e-05
2.37764e-05
2.43439e-05
2.49466e-05
2.55868e-05
2.62667e-05
2.6989e-05
2.77564e-05
2.85718e-05
2.94381e-05
3.03585e-05
3.13364e-05
3.23748e-05
3.3477e-05
3.46459e-05
3.58839e-05
3.71932e-05
3.85746e-05
4.00286e-05
4.15536e-05
4.31475e-05
4.48046e-05
4.65212e-05
4.82767e-05
5.00634e-05
5.18515e-05
5.36354e-05
5.54004e-05
5.71014e-05
5.87347e-05
6.02109e-05
6.15877e-05
6.25705e-05
6.24633e-05
6.18302e-05
6.04521e-05
5.85483e-05
5.51218e-05
1.9119e-05
1.92931e-05
1.94732e-05
1.96599e-05
1.98533e-05
2.00538e-05
2.02618e-05
2.04778e-05
2.0702e-05
2.0935e-05
2.11772e-05
2.14291e-05
2.16913e-05
2.19643e-05
2.22486e-05
2.25448e-05
2.28536e-05
2.31755e-05
2.35112e-05
2.38613e-05
2.42266e-05
2.46078e-05
2.50056e-05
2.54209e-05
2.58544e-05
2.63072e-05
2.67801e-05
2.72743e-05
2.77909e-05
2.83312e-05
2.88967e-05
2.94889e-05
3.01095e-05
3.07604e-05
3.14437e-05
3.21614e-05
3.29162e-05
3.37105e-05
3.45471e-05
3.54288e-05
3.63585e-05
3.73392e-05
3.83735e-05
3.9464e-05
4.06126e-05
4.1821e-05
4.30901e-05
4.44195e-05
4.58078e-05
4.72531e-05
4.87507e-05
5.02957e-05
5.188e-05
5.34977e-05
5.51249e-05
5.67556e-05
5.83233e-05
5.98901e-05
6.13699e-05
6.27978e-05
6.40371e-05
6.49628e-05
6.49645e-05
6.43534e-05
6.31843e-05
6.14873e-05
5.86622e-05
5.54049e-05
5.02038e-05
2.46475e-05
2.49162e-05
2.51924e-05
2.54763e-05
2.5768e-05
2.60677e-05
2.63755e-05
2.66918e-05
2.70167e-05
2.73503e-05
2.76929e-05
2.80448e-05
2.84061e-05
2.87772e-05
2.91582e-05
2.95495e-05
2.99512e-05
3.03637e-05
3.07873e-05
3.12222e-05
3.16688e-05
3.21275e-05
3.25987e-05
3.30831e-05
3.35811e-05
3.40937e-05
3.46215e-05
3.51657e-05
3.57272e-05
3.63076e-05
3.69084e-05
3.75312e-05
3.8178e-05
3.88509e-05
3.95523e-05
4.02844e-05
4.105e-05
4.18517e-05
4.26924e-05
4.35745e-05
4.45008e-05
4.54733e-05
4.6494e-05
4.75641e-05
4.86844e-05
4.98546e-05
5.10735e-05
5.23382e-05
5.36448e-05
5.49908e-05
5.63668e-05
5.77666e-05
5.91847e-05
6.06034e-05
6.20045e-05
6.33844e-05
6.46054e-05
6.59282e-05
6.69817e-05
6.7923e-05
6.77228e-05
6.70608e-05
6.58771e-05
6.43041e-05
6.19843e-05
5.85379e-05
5.4786e-05
4.93225e-05
4.77265e-05
3.33319e-05
3.37048e-05
3.40825e-05
3.44654e-05
3.48529e-05
3.5245e-05
3.56416e-05
3.60426e-05
3.64479e-05
3.68576e-05
3.72715e-05
3.76898e-05
3.81123e-05
3.85392e-05
3.89704e-05
3.9406e-05
3.98459e-05
4.02902e-05
4.07391e-05
4.11927e-05
4.16514e-05
4.21156e-05
4.25858e-05
4.30628e-05
4.35472e-05
4.40401e-05
4.45425e-05
4.50558e-05
4.55815e-05
4.61213e-05
4.66772e-05
4.7251e-05
4.78454e-05
4.84624e-05
4.91047e-05
4.97745e-05
5.04749e-05
5.12082e-05
5.19767e-05
5.27826e-05
5.36275e-05
5.45127e-05
5.54388e-05
5.64059e-05
5.74127e-05
5.84576e-05
5.95363e-05
6.06428e-05
6.17731e-05
6.29288e-05
6.40838e-05
6.5246e-05
6.6417e-05
6.75227e-05
6.86559e-05
6.96765e-05
7.04369e-05
7.08787e-05
7.05696e-05
6.97879e-05
6.85386e-05
6.70168e-05
6.48142e-05
6.1622e-05
5.78558e-05
5.32989e-05
4.82445e-05
4.59473e-05
5.09795e-05
4.60067e-05
4.64206e-05
4.68354e-05
4.72511e-05
4.76633e-05
4.80723e-05
4.84786e-05
4.88825e-05
4.9284e-05
4.96835e-05
5.00809e-05
5.04765e-05
5.08698e-05
5.12607e-05
5.1649e-05
5.20345e-05
5.24171e-05
5.27969e-05
5.31743e-05
5.35499e-05
5.39243e-05
5.42984e-05
5.46731e-05
5.50495e-05
5.54288e-05
5.58123e-05
5.62014e-05
5.65978e-05
5.70035e-05
5.74205e-05
5.78507e-05
5.82961e-05
5.87606e-05
5.92437e-05
5.9751e-05
6.02809e-05
6.08404e-05
6.14284e-05
6.20464e-05
6.26959e-05
6.33777e-05
6.40924e-05
6.48395e-05
6.56179e-05
6.64238e-05
6.72548e-05
6.80994e-05
6.89507e-05
6.98186e-05
7.07054e-05
7.15277e-05
7.23979e-05
7.32552e-05
7.39005e-05
7.44318e-05
7.42752e-05
7.36731e-05
7.25937e-05
7.12701e-05
6.96463e-05
6.73582e-05
6.43723e-05
6.05361e-05
5.60813e-05
5.13602e-05
4.64573e-05
4.34497e-05
4.77063e-05
5.00049e-05
6.23584e-05
6.26817e-05
6.30029e-05
6.33217e-05
6.36372e-05
6.39486e-05
6.42558e-05
6.45583e-05
6.48561e-05
6.51489e-05
6.54368e-05
6.57196e-05
6.59916e-05
6.62535e-05
6.6506e-05
6.67475e-05
6.69781e-05
6.71999e-05
6.74144e-05
6.76232e-05
6.78276e-05
6.8029e-05
6.82285e-05
6.84274e-05
6.86267e-05
6.8828e-05
6.90329e-05
6.92431e-05
6.94608e-05
6.96877e-05
6.99228e-05
7.01695e-05
7.04398e-05
7.07145e-05
7.10229e-05
7.13345e-05
7.16906e-05
7.20558e-05
7.24419e-05
7.28541e-05
7.32907e-05
7.3754e-05
7.42401e-05
7.47486e-05
7.52699e-05
7.58015e-05
7.63065e-05
7.68142e-05
7.73873e-05
7.79304e-05
7.82643e-05
7.85524e-05
7.83568e-05
7.77649e-05
7.6715e-05
7.54862e-05
7.40529e-05
7.21618e-05
6.97418e-05
6.66064e-05
6.27358e-05
5.83302e-05
5.34072e-05
4.87755e-05
4.42545e-05
4.07328e-05
4.38499e-05
4.67776e-05
5.99597e-05
8.12371e-05
8.13684e-05
8.14949e-05
8.16165e-05
8.17325e-05
8.18427e-05
8.19471e-05
8.20455e-05
8.21377e-05
8.22237e-05
8.23036e-05
8.23767e-05
8.24453e-05
8.25014e-05
8.25525e-05
8.25707e-05
8.25668e-05
8.2563e-05
8.25538e-05
8.25436e-05
8.25289e-05
8.25122e-05
8.24927e-05
8.247e-05
8.24444e-05
8.24179e-05
8.23922e-05
8.23693e-05
8.23501e-05
8.23313e-05
8.22862e-05
8.22592e-05
8.23161e-05
8.22733e-05
8.23774e-05
8.23436e-05
8.25119e-05
8.2516e-05
8.25813e-05
8.26866e-05
8.28035e-05
8.29509e-05
8.31042e-05
8.3281e-05
8.34394e-05
8.35723e-05
8.35836e-05
8.37185e-05
8.35331e-05
8.30369e-05
8.21674e-05
8.10412e-05
7.98076e-05
7.83738e-05
7.66879e-05
7.44749e-05
7.1699e-05
6.82716e-05
6.42309e-05
5.95836e-05
5.4851e-05
4.99442e-05
4.55641e-05
4.17321e-05
3.76905e-05
3.95129e-05
4.25395e-05
5.28981e-05
6.47698e-05
0.000101018
0.000100908
0.00010079
0.000100663
0.000100529
0.000100386
0.000100237
0.000100083
9.99217e-05
9.9753e-05
9.95802e-05
9.93896e-05
9.92383e-05
9.89827e-05
9.88236e-05
9.85586e-05
9.8312e-05
9.81102e-05
9.77978e-05
9.75621e-05
9.72546e-05
9.69747e-05
9.66742e-05
9.63553e-05
9.60135e-05
9.56699e-05
9.53254e-05
9.49813e-05
9.46394e-05
9.4301e-05
9.3965e-05
9.36346e-05
9.33197e-05
9.30048e-05
9.27085e-05
9.24123e-05
9.2113e-05
9.19189e-05
9.16806e-05
9.15233e-05
9.12547e-05
9.10823e-05
9.08397e-05
9.0391e-05
8.97486e-05
8.89697e-05
8.80341e-05
8.69083e-05
8.56719e-05
8.43181e-05
8.27538e-05
8.09887e-05
7.87466e-05
7.60741e-05
7.27526e-05
6.8965e-05
6.44937e-05
5.98091e-05
5.47368e-05
5.01162e-05
4.57369e-05
4.13226e-05
3.84008e-05
3.49017e-05
3.46159e-05
3.79234e-05
4.3425e-05
5.02193e-05
5.25115e-05
0.000120197
0.000119837
0.000119467
0.000119086
0.000118695
0.000118293
0.00011788
0.000117456
0.000117021
0.000116576
0.00011612
0.000115653
0.000115178
0.000114684
0.000114186
0.000113665
0.000113125
0.000112574
0.000112
0.000111416
0.000110815
0.000110203
0.000109579
0.000108944
0.000108296
0.000107637
0.000106971
0.000106301
0.00010563
0.000104958
0.000104289
0.000103621
0.000102956
0.000102292
0.000101629
0.000100945
0.000100233
9.94906e-05
9.86822e-05
9.78099e-05
9.68417e-05
9.57799e-05
9.45787e-05
9.33013e-05
9.19413e-05
9.04574e-05
8.88313e-05
8.70079e-05
8.49171e-05
8.24299e-05
7.95438e-05
7.61337e-05
7.22431e-05
6.78397e-05
6.30275e-05
5.80874e-05
5.30412e-05
4.83487e-05
4.37907e-05
3.99875e-05
3.56742e-05
3.36886e-05
2.90539e-05
2.77831e-05
2.92413e-05
3.59031e-05
3.92166e-05
4.03446e-05
3.48553e-05
0.000135984
0.000135422
0.000134843
0.000134247
0.000133635
0.000133006
0.000132362
0.000131703
0.000131027
0.000130337
0.000129627
0.000128896
0.000128145
0.000127375
0.000126587
0.00012578
0.000124955
0.000124113
0.000123253
0.000122376
0.000121481
0.00012057
0.000119643
0.0001187
0.000117741
0.000116766
0.000115778
0.000114772
0.000113745
0.000112694
0.000111615
0.000110503
0.000109351
0.000108154
0.000106902
0.000105615
0.000104283
0.000102898
0.000101442
9.99052e-05
9.82631e-05
9.65057e-05
9.46121e-05
9.2525e-05
9.02072e-05
8.75781e-05
8.46637e-05
8.12822e-05
7.75733e-05
7.33376e-05
6.87861e-05
6.38465e-05
5.89134e-05
5.36684e-05
4.90221e-05
4.40579e-05
3.98945e-05
3.52103e-05
3.23019e-05
2.80077e-05
2.56024e-05
2.01028e-05
1.99716e-05
2.3378e-05
2.6013e-05
2.93081e-05
2.98031e-05
2.76754e-05
2.32287e-05
0.000145067
0.000144339
0.00014359
0.000142822
0.000142033
0.000141223
0.000140392
0.000139541
0.000138669
0.000137775
0.000136861
0.000135924
0.000134965
0.000133983
0.000132978
0.000131951
0.0001309
0.000129825
0.000128728
0.000127606
0.000126461
0.000125291
0.000124095
0.000122874
0.000121628
0.00012035
0.00011903
0.000117668
0.000116262
0.000114808
0.000113303
0.000111742
0.000110116
0.000108416
0.000106627
0.00010473
0.000102698
0.000100523
9.81602e-05
9.56202e-05
9.28347e-05
8.98578e-05
8.65737e-05
8.30524e-05
7.9175e-05
7.49874e-05
7.05318e-05
6.57289e-05
6.08975e-05
5.59113e-05
5.09482e-05
4.63668e-05
4.15055e-05
3.70081e-05
3.26261e-05
2.84164e-05
2.39523e-05
2.06614e-05
1.59503e-05
1.16982e-05
1.26217e-05
1.39048e-05
1.51993e-05
1.83028e-05
2.11021e-05
2.2218e-05
2.21467e-05
1.98078e-05
1.63886e-05
0.000139764
0.000139007
0.000138219
0.000137402
0.000136558
0.000135688
0.000134791
0.000133868
0.000132918
0.000131943
0.000130942
0.000129913
0.000128858
0.000127774
0.000126662
0.000125521
0.000124349
0.000123146
0.00012191
0.000120641
0.000119338
0.000118001
0.000116627
0.00011523
0.000113765
0.000112227
0.000110606
0.000108891
0.000107059
0.000105111
0.000103035
0.000100815
9.84303e-05
9.58677e-05
9.30982e-05
9.0126e-05
8.69114e-05
8.34881e-05
7.98354e-05
7.61468e-05
7.23336e-05
6.87265e-05
6.48609e-05
6.09788e-05
5.67983e-05
5.26506e-05
4.83334e-05
4.39681e-05
3.97849e-05
3.52766e-05
3.11041e-05
2.58358e-05
2.12425e-05
1.70887e-05
1.30818e-05
8.3768e-06
5.65664e-06
5.17074e-06
5.3611e-06
5.97729e-06
7.59706e-06
1.00651e-05
1.28028e-05
1.55105e-05
1.78811e-05
1.92347e-05
1.94831e-05
1.8064e-05
1.5352e-05
0.000108842
0.000108024
0.000107182
0.000106318
0.000105431
0.000104519
0.000103583
0.00010262
0.000101631
0.000100616
9.95738e-05
9.85039e-05
9.74058e-05
9.62796e-05
9.51227e-05
9.39383e-05
9.27188e-05
9.14734e-05
9.01884e-05
8.88761e-05
8.7526e-05
8.61402e-05
8.47169e-05
8.3227e-05
8.17072e-05
8.01563e-05
7.85821e-05
7.69767e-05
7.5364e-05
7.37196e-05
7.20478e-05
7.03425e-05
6.86124e-05
6.68524e-05
6.5065e-05
6.32457e-05
6.13866e-05
5.9479e-05
5.74796e-05
5.5228e-05
5.27007e-05
4.95585e-05
4.61535e-05
4.22668e-05
3.80496e-05
3.32868e-05
2.823e-05
2.30163e-05
1.78924e-05
1.26472e-05
8.16635e-06
5.03533e-06
3.33525e-06
2.35264e-06
1.62762e-06
1.27446e-06
1.16815e-06
1.17746e-06
1.47221e-06
2.22621e-06
3.59085e-06
5.67896e-06
8.23004e-06
1.0789e-05
1.33239e-05
1.51341e-05
1.57666e-05
1.52919e-05
1.35843e-05
6.49915e-05
6.5678e-05
6.63633e-05
6.70426e-05
6.77147e-05
6.83771e-05
6.90274e-05
6.9667e-05
7.02898e-05
7.09008e-05
7.14914e-05
7.20667e-05
7.2619e-05
7.31504e-05
7.36555e-05
7.41328e-05
7.45791e-05
7.49884e-05
7.53632e-05
7.56848e-05
7.59724e-05
7.61824e-05
7.63653e-05
7.6441e-05
7.64588e-05
7.64026e-05
7.62209e-05
7.58969e-05
7.54344e-05
7.48007e-05
7.39705e-05
7.29155e-05
7.16041e-05
6.99975e-05
6.80519e-05
6.5716e-05
6.29326e-05
5.96426e-05
5.57651e-05
5.12322e-05
4.59682e-05
3.98847e-05
3.29806e-05
2.51988e-05
1.70878e-05
9.52585e-06
3.88975e-06
1.39043e-06
1.16624e-06
1.22897e-06
1.15806e-06
9.99789e-07
8.40446e-07
6.03632e-07
4.47357e-07
3.8529e-07
3.60046e-07
3.56319e-07
4.11199e-07
5.31719e-07
7.11186e-07
9.50504e-07
1.25671e-06
1.7022e-06
2.26156e-06
2.7952e-06
3.15248e-06
3.48016e-06
3.41312e-06
4.92168e-06
4.92277e-06
4.92436e-06
4.92547e-06
4.92716e-06
4.92825e-06
4.92923e-06
4.92907e-06
4.92786e-06
4.92684e-06
4.92661e-06
4.93254e-06
4.9425e-06
4.94923e-06
4.95243e-06
4.94831e-06
4.95682e-06
4.96176e-06
4.96558e-06
4.96569e-06
4.97265e-06
4.98118e-06
4.98314e-06
4.98631e-06
4.98874e-06
4.98853e-06
4.99716e-06
5.00351e-06
5.01312e-06
5.01654e-06
5.01708e-06
5.02792e-06
5.03892e-06
5.04359e-06
5.05013e-06
5.05159e-06
5.06121e-06
5.06662e-06
5.06912e-06
5.08467e-06
5.08199e-06
5.08649e-06
5.08472e-06
5.08682e-06
5.09783e-06
5.10037e-06
5.10093e-06
5.10208e-06
5.10558e-06
5.10679e-06
5.10873e-06
5.11519e-06
5.11953e-06
5.12296e-06
5.1284e-06
5.1324e-06
5.13652e-06
5.13978e-06
5.14322e-06
5.00821e-06
5.00873e-06
5.00936e-06
5.00993e-06
5.0104e-06
5.01046e-06
5.00942e-06
5.00836e-06
5.00876e-06
5.01202e-06
5.01599e-06
5.02247e-06
5.02691e-06
5.02931e-06
5.02919e-06
5.0321e-06
5.03995e-06
5.04335e-06
5.04539e-06
5.04872e-06
5.057e-06
5.06239e-06
5.065e-06
5.06951e-06
5.07079e-06
5.07201e-06
5.0816e-06
5.08998e-06
5.09697e-06
5.10135e-06
5.10554e-06
5.11517e-06
5.12614e-06
5.13165e-06
5.14121e-06
5.14427e-06
5.15248e-06
5.16061e-06
5.16377e-06
5.17852e-06
5.18213e-06
5.18676e-06
5.19034e-06
5.19026e-06
5.19627e-06
5.20353e-06
5.20722e-06
5.20989e-06
5.21397e-06
5.21711e-06
5.21938e-06
5.22335e-06
5.22796e-06
5.23038e-06
5.23447e-06
5.23793e-06
5.24166e-06
5.2454e-06
5.24956e-06
5.11247e-06
5.11187e-06
5.11108e-06
5.11032e-06
5.10943e-06
5.10861e-06
5.1082e-06
5.10902e-06
5.11194e-06
5.11546e-06
5.11882e-06
5.12172e-06
5.12366e-06
5.1247e-06
5.12694e-06
5.13284e-06
5.13752e-06
5.13944e-06
5.14198e-06
5.1496e-06
5.15667e-06
5.1604e-06
5.16378e-06
5.1686e-06
5.16967e-06
5.17295e-06
5.18307e-06
5.193e-06
5.19861e-06
5.20404e-06
5.21122e-06
5.22026e-06
5.23133e-06
5.23821e-06
5.24951e-06
5.25498e-06
5.26265e-06
5.27235e-06
5.27654e-06
5.2908e-06
5.29934e-06
5.30553e-06
5.31167e-06
5.31519e-06
5.31885e-06
5.32565e-06
5.33223e-06
5.33748e-06
5.34279e-06
5.34761e-06
5.35184e-06
5.35589e-06
5.36086e-06
5.36447e-06
5.36814e-06
5.37154e-06
5.37502e-06
5.37844e-06
5.38249e-06
5.23299e-06
5.23154e-06
5.2301e-06
5.22885e-06
5.22789e-06
5.22752e-06
5.22768e-06
5.22999e-06
5.2321e-06
5.23434e-06
5.2364e-06
5.23796e-06
5.23921e-06
5.24147e-06
5.24516e-06
5.24937e-06
5.25201e-06
5.25435e-06
5.2606e-06
5.26862e-06
5.27475e-06
5.2778e-06
5.28184e-06
5.28651e-06
5.28803e-06
5.29338e-06
5.30413e-06
5.31511e-06
5.32043e-06
5.32702e-06
5.33649e-06
5.3456e-06
5.35718e-06
5.36566e-06
5.37844e-06
5.38658e-06
5.39478e-06
5.40569e-06
5.41122e-06
5.42482e-06
5.43698e-06
5.44574e-06
5.45409e-06
5.46126e-06
5.46675e-06
5.47305e-06
5.48065e-06
5.488e-06
5.49511e-06
5.50168e-06
5.50783e-06
5.51341e-06
5.51918e-06
5.52439e-06
5.52923e-06
5.53363e-06
5.53787e-06
5.54171e-06
5.54606e-06
5.37582e-06
5.37416e-06
5.37268e-06
5.37146e-06
5.37067e-06
5.37044e-06
5.3708e-06
5.3714e-06
5.37268e-06
5.37399e-06
5.37514e-06
5.37626e-06
5.37782e-06
5.38034e-06
5.38364e-06
5.38679e-06
5.3895e-06
5.3946e-06
5.40197e-06
5.40907e-06
5.4147e-06
5.4179e-06
5.42246e-06
5.42695e-06
5.42929e-06
5.43691e-06
5.44831e-06
5.46014e-06
5.46601e-06
5.47385e-06
5.4853e-06
5.49509e-06
5.50749e-06
5.51767e-06
5.53192e-06
5.54294e-06
5.5526e-06
5.565e-06
5.57244e-06
5.58553e-06
5.60024e-06
5.61213e-06
5.62281e-06
5.63287e-06
5.64164e-06
5.64957e-06
5.65818e-06
5.66709e-06
5.67602e-06
5.68451e-06
5.69261e-06
5.70017e-06
5.70748e-06
5.71438e-06
5.7209e-06
5.72688e-06
5.73256e-06
5.73764e-06
5.74312e-06
5.54713e-06
5.54533e-06
5.54375e-06
5.54234e-06
5.54124e-06
5.54046e-06
5.53995e-06
5.53966e-06
5.53969e-06
5.53997e-06
5.54044e-06
5.54143e-06
5.5432e-06
5.54578e-06
5.54881e-06
5.55192e-06
5.55633e-06
5.56269e-06
5.56982e-06
5.57655e-06
5.58177e-06
5.5855e-06
5.59046e-06
5.59499e-06
5.59888e-06
5.60839e-06
5.62068e-06
5.63339e-06
5.64043e-06
5.64972e-06
5.66307e-06
5.67413e-06
5.68763e-06
5.69965e-06
5.71546e-06
5.7295e-06
5.74143e-06
5.75578e-06
5.7659e-06
5.77908e-06
5.79548e-06
5.81064e-06
5.82428e-06
5.83707e-06
5.84909e-06
5.85997e-06
5.87066e-06
5.88143e-06
5.89227e-06
5.90285e-06
5.91307e-06
5.92282e-06
5.93217e-06
5.94106e-06
5.94953e-06
5.95744e-06
5.96498e-06
5.97183e-06
5.97904e-06
5.75174e-06
5.74945e-06
5.74739e-06
5.74534e-06
5.7435e-06
5.74183e-06
5.74038e-06
5.73919e-06
5.73841e-06
5.73823e-06
5.73871e-06
5.73983e-06
5.74179e-06
5.74447e-06
5.74769e-06
5.75153e-06
5.75692e-06
5.76359e-06
5.7707e-06
5.77724e-06
5.78237e-06
5.78676e-06
5.79213e-06
5.79718e-06
5.80298e-06
5.81424e-06
5.8277e-06
5.84148e-06
5.85022e-06
5.86125e-06
5.87657e-06
5.88944e-06
5.9044e-06
5.91853e-06
5.93611e-06
5.95329e-06
5.96819e-06
5.98501e-06
5.99857e-06
6.01297e-06
6.03066e-06
6.0488e-06
6.06592e-06
6.08197e-06
6.09732e-06
6.11167e-06
6.12539e-06
6.1388e-06
6.15207e-06
6.16508e-06
6.17774e-06
6.18993e-06
6.20168e-06
6.21289e-06
6.22364e-06
6.23377e-06
6.24349e-06
6.25245e-06
6.26182e-06
5.99566e-06
5.99262e-06
5.98988e-06
5.98705e-06
5.98442e-06
5.98202e-06
5.97993e-06
5.97829e-06
5.9773e-06
5.97719e-06
5.97787e-06
5.97918e-06
5.98135e-06
5.98428e-06
5.98795e-06
5.99259e-06
5.99854e-06
6.00549e-06
6.01259e-06
6.01899e-06
6.02435e-06
6.0295e-06
6.03548e-06
6.04159e-06
6.04951e-06
6.06257e-06
6.07747e-06
6.09264e-06
6.10358e-06
6.11674e-06
6.13424e-06
6.1495e-06
6.16642e-06