/*--------------------------------*- C++ -*----------------------------------*\
| =========                 |                                                 |
| \\      /  F ield         | OpenFOAM: The Open Source CFD Toolbox           |
|  \\    /   O peration     | Version:  2312                                  |
|   \\  /    A nd           | Website:  www.openfoam.com                      |
|    \\/     M anipulation  |                                                 |
\*---------------------------------------------------------------------------*/
FoamFile
{
    version     2.0;
    format      ascii;
    arch        "LSB;label=32;scalar=64";
    class       volScalarField;
    location    "1100";
    object      nut;
}
// * * * * * * * * * * * * * * * * * * * * * * * * * * * * * * * * * * * * * //

dimensions      [0 2 -1 0 0 0 0];

internalField   nonuniform List<scalar> 
76025
(
0.000172835
0.000172985
0.000173116
0.000173225
0.000173278
0.000173405
0.000173417
0.000173515
0.000173586
0.000173674
0.000173816
0.000173987
0.000174169
0.000174295
0.000174441
0.000174521
0.000174502
0.000174698
0.000174876
0.00017518
0.000175428
0.000175643
0.000175832
0.000176034
0.000176232
0.00017641
0.000176691
0.000176908
0.000177127
0.000177177
0.00017759
0.000178252
0.000178879
0.000179473
0.00018008
0.000180692
0.000181383
0.000182155
0.000182983
0.000183874
0.000184816
0.000185918
0.000187132
0.000188426
0.000189809
0.000191323
0.000192942
0.000194685
0.000196556
0.000198516
0.000200653
0.000202946
0.000205406
0.000207923
0.000211064
0.000214227
0.000217961
0.000222071
0.000226889
0.000232417
0.000238708
0.000246103
0.000254457
0.00026442
0.000276463
0.000290056
0.000305245
0.000323652
0.000341179
0.000174684
0.000174819
0.000174959
0.000175118
0.000175229
0.000175418
0.000175593
0.000175761
0.000175896
0.000175975
0.000176058
0.000176159
0.000176297
0.000176439
0.000176605
0.000176754
0.000176915
0.000177108
0.000177337
0.000177572
0.00017783
0.000178082
0.000178342
0.000178608
0.000178885
0.00017916
0.000179448
0.000179758
0.000179935
0.000180145
0.000180591
0.000181187
0.000181878
0.000182592
0.000183335
0.000184109
0.000184921
0.000185799
0.000186727
0.000187725
0.000188812
0.000189986
0.000191263
0.000192627
0.000194105
0.000195695
0.000197403
0.000199226
0.000201186
0.000203309
0.000205593
0.000208107
0.000210846
0.000213909
0.000217288
0.000221119
0.000225426
0.000230316
0.000235914
0.0002423
0.000249718
0.000258107
0.00026795
0.000279141
0.000292132
0.000306786
0.000323811
0.000342491
0.000362801
0.000176803
0.00017694
0.000177097
0.000177287
0.000177462
0.000177659
0.000177848
0.000177994
0.000178078
0.000178298
0.000178544
0.000178746
0.000178938
0.000179124
0.000179321
0.000179517
0.000179727
0.000179948
0.000180195
0.000180453
0.000180731
0.00018102
0.000181326
0.000181643
0.000181972
0.00018231
0.000182661
0.000183035
0.000183415
0.000183832
0.000184346
0.00018495
0.000185633
0.000186379
0.000187177
0.000188029
0.000188937
0.000189908
0.000190948
0.000192062
0.000193263
0.000194558
0.000195955
0.000197456
0.000199065
0.000200795
0.000202652
0.000204648
0.000206803
0.000209142
0.000211697
0.000214505
0.000217615
0.00022107
0.000224938
0.000229291
0.000234217
0.0002398
0.000246189
0.000253474
0.000261867
0.000271439
0.000282468
0.000294986
0.000309347
0.000325422
0.000343338
0.000362655
0.000382876
0.000179447
0.000179572
0.000179719
0.000179896
0.000180089
0.000180296
0.00018051
0.000180722
0.00018093
0.000181157
0.000181392
0.000181624
0.000181858
0.000182095
0.000182345
0.000182607
0.000182888
0.000183181
0.000183488
0.000183806
0.000184134
0.000184472
0.000184828
0.000185206
0.000185612
0.000186046
0.000186507
0.000186994
0.00018751
0.000188061
0.000188665
0.000189328
0.000190056
0.000190849
0.000191707
0.000192631
0.000193624
0.000194689
0.000195831
0.000197054
0.000198369
0.000199782
0.000201305
0.000202939
0.000204693
0.000206582
0.000208616
0.000210819
0.00021321
0.000215828
0.000218702
0.000221887
0.000225424
0.000229385
0.000233826
0.000238846
0.000244526
0.000250983
0.000258344
0.00026673
0.000276322
0.000287193
0.000299587
0.000313457
0.000329077
0.000346053
0.000364509
0.000383511
0.000402646
0.000182629
0.00018276
0.000182904
0.000183068
0.000183254
0.000183457
0.000183675
0.000183908
0.000184152
0.000184403
0.000184662
0.000184922
0.000185191
0.000185471
0.000185763
0.000186063
0.000186375
0.000186705
0.000187054
0.00018743
0.000187829
0.000188249
0.000188694
0.000189167
0.000189671
0.000190205
0.000190769
0.000191365
0.000191999
0.000192679
0.000193414
0.000194211
0.000195072
0.000195997
0.000196985
0.000198035
0.000199148
0.000200327
0.00020158
0.000202915
0.000204342
0.000205875
0.000207526
0.000209305
0.000211222
0.000213298
0.00021555
0.000218007
0.000220695
0.00022366
0.000226938
0.000230592
0.000234669
0.000239253
0.000244405
0.000250237
0.000256829
0.000264314
0.0002728
0.00028242
0.000293303
0.000305524
0.00031922
0.00033428
0.000350799
0.00036818
0.000386355
0.000404022
0.000420747
0.000186376
0.000186531
0.000186695
0.00018687
0.00018706
0.000187267
0.00018749
0.00018773
0.000187987
0.000188256
0.000188539
0.000188832
0.000189137
0.000189457
0.000189792
0.000190137
0.000190491
0.000190863
0.000191255
0.000191679
0.000192135
0.000192625
0.000193149
0.000193706
0.0001943
0.000194929
0.00019559
0.000196289
0.000197043
0.000197868
0.000198773
0.000199758
0.000200814
0.000201926
0.000203085
0.000204285
0.000205528
0.000206824
0.000208185
0.000209628
0.000211171
0.000212834
0.000214632
0.000216584
0.000218705
0.000221019
0.000223551
0.000226337
0.000229411
0.000232824
0.000236621
0.000240871
0.000245631
0.000250992
0.00025702
0.000263834
0.00027151
0.000280184
0.000289934
0.000300884
0.000313096
0.000326604
0.000341409
0.000357279
0.000374097
0.000390995
0.000407829
0.000422813
0.000435873
0.000190759
0.00019095
0.000191147
0.000191354
0.000191573
0.000191803
0.000192048
0.000192307
0.000192583
0.000192875
0.000193183
0.000193508
0.00019385
0.00019421
0.000194589
0.000194985
0.000195395
0.000195825
0.000196277
0.000196758
0.000197273
0.000197823
0.000198411
0.000199036
0.000199701
0.000200406
0.000201151
0.000201943
0.000202793
0.000203718
0.000204727
0.000205824
0.000206999
0.00020824
0.000209536
0.000210883
0.00021228
0.000213739
0.000215273
0.000216902
0.000218645
0.000220525
0.000222564
0.000224789
0.000227218
0.000229882
0.000232814
0.000236058
0.000239655
0.000243665
0.00024814
0.000253157
0.000258778
0.000265099
0.000272187
0.000280159
0.000289075
0.000299057
0.000310139
0.000322408
0.000335828
0.000350355
0.0003658
0.000381787
0.000397938
0.000413177
0.000427364
0.000438194
0.000446358
0.000195883
0.000196116
0.000196357
0.000196607
0.000196868
0.000197141
0.000197426
0.000197724
0.000198037
0.000198366
0.000198711
0.000199075
0.000199459
0.000199864
0.00020029
0.000200739
0.000201209
0.000201703
0.000202222
0.000202771
0.000203353
0.000203969
0.000204625
0.000205319
0.000206053
0.00020683
0.000207655
0.000208531
0.000209469
0.000210478
0.000211568
0.000212744
0.000214004
0.000215344
0.000216761
0.000218253
0.000219824
0.000221483
0.000223244
0.000225126
0.00022715
0.000229341
0.000231723
0.000234333
0.000237193
0.00024034
0.000243817
0.000247674
0.000251961
0.000256743
0.000262081
0.000268053
0.000274723
0.000282185
0.000290496
0.000299755
0.000309996
0.0003213
0.000333638
0.000347022
0.000361284
0.000376252
0.000391516
0.000406565
0.000420743
0.000432958
0.000443057
0.000448285
0.000450928
0.000201906
0.000202184
0.000202471
0.000202771
0.000203082
0.000203407
0.000203744
0.000204096
0.000204462
0.000204844
0.000205244
0.000205661
0.0002061
0.00020656
0.000207044
0.000207554
0.000208089
0.000208652
0.000209245
0.00020987
0.000210529
0.000211227
0.000211963
0.00021274
0.00021356
0.000214426
0.000215345
0.00021632
0.000217359
0.000218471
0.000219665
0.000220946
0.000222318
0.000223786
0.000225353
0.000227022
0.000228803
0.000230706
0.000232748
0.000234947
0.000237329
0.000239919
0.000242751
0.00024586
0.000249285
0.000253064
0.000257247
0.000261888
0.000267047
0.000272788
0.000279175
0.000286281
0.000294163
0.000302895
0.000312515
0.000323084
0.000334587
0.000347037
0.000360311
0.000374299
0.00038868
0.000403116
0.000417
0.000429731
0.000440428
0.000448257
0.000452784
0.000451476
0.000448348
0.000209038
0.000209364
0.000209702
0.000210054
0.00021042
0.000210802
0.000211199
0.000211613
0.000212044
0.000212492
0.000212959
0.000213445
0.000213954
0.000214485
0.000215043
0.000215627
0.000216241
0.000216885
0.000217564
0.000218278
0.000219031
0.000219824
0.00022066
0.000221541
0.000222472
0.000223455
0.000224496
0.000225601
0.000226778
0.000228034
0.000229378
0.000230818
0.000232363
0.000234022
0.000235803
0.000237717
0.000239776
0.000241997
0.0002444
0.000247008
0.000249849
0.000252956
0.000256367
0.000260122
0.000264273
0.000268857
0.000273928
0.000279542
0.000285756
0.000292631
0.00030022
0.000308579
0.000317746
0.000327759
0.000338615
0.000350312
0.000362762
0.000375872
0.000389396
0.000403073
0.000416434
0.000428985
0.000440017
0.000448893
0.000454651
0.000456891
0.000454568
0.000446686
0.000436699
0.000217547
0.00021793
0.000218326
0.000218738
0.000219166
0.000219612
0.000220076
0.00022056
0.000221064
0.000221589
0.000222135
0.000222704
0.000223298
0.000223918
0.000224565
0.000225243
0.000225954
0.0002267
0.000227483
0.000228307
0.000229173
0.000230084
0.000231045
0.000232059
0.00023313
0.000234264
0.000235467
0.000236745
0.000238107
0.000239563
0.000241122
0.000242795
0.000244594
0.000246532
0.000248624
0.000250884
0.000253333
0.00025599
0.000258882
0.000262038
0.000265491
0.000269279
0.000273443
0.000278029
0.000283088
0.000288669
0.000294811
0.000301563
0.000308971
0.000317078
0.000325916
0.000335506
0.000345849
0.000356927
0.000368672
0.00038099
0.000393694
0.000406557
0.000419214
0.000431252
0.000442129
0.000451224
0.000457892
0.000461467
0.000461132
0.000456841
0.000447021
0.000433024
0.000414155
0.000227778
0.000228232
0.0002287
0.000229186
0.00022969
0.000230214
0.000230759
0.000231326
0.000231917
0.000232533
0.000233174
0.000233843
0.000234541
0.000235269
0.000236031
0.000236827
0.000237662
0.000238537
0.000239454
0.000240417
0.000241429
0.000242494
0.000243618
0.000244807
0.000246065
0.0002474
0.00024882
0.000250333
0.000251952
0.000253686
0.000255549
0.000257554
0.000259719
0.00026206
0.000264597
0.00026735
0.000270345
0.000273607
0.000277166
0.000281056
0.000285313
0.000289975
0.000295085
0.000300685
0.000306818
0.000313528
0.000320846
0.000328794
0.000337392
0.00034665
0.000356563
0.000367102
0.000378206
0.000389779
0.000401668
0.000413667
0.000425489
0.000436777
0.000447097
0.000455921
0.000462763
0.000466877
0.000467912
0.000465064
0.000457941
0.000446583
0.000429518
0.000409433
0.000381028
0.00024019
0.000240736
0.0002413
0.000241883
0.000242486
0.000243113
0.000243763
0.000244439
0.000245143
0.000245876
0.000246641
0.000247439
0.000248272
0.000249143
0.000250054
0.000251009
0.000252008
0.000253054
0.000254153
0.000255307
0.000256523
0.000257805
0.00025916
0.000260596
0.00026212
0.000263743
0.000265474
0.000267325
0.000269311
0.000271446
0.000273745
0.000276228
0.000278915
0.000281826
0.000284985
0.000288417
0.000292149
0.000296209
0.000300628
0.000305437
0.000310669
0.000316357
0.000322533
0.000329228
0.000336467
0.000344273
0.000352654
0.000361622
0.000371129
0.000381147
0.000391611
0.000402425
0.000413452
0.000424506
0.000435349
0.000445675
0.000455131
0.000463269
0.000469684
0.000473759
0.000475236
0.000473137
0.000467759
0.00045779
0.000443743
0.000425401
0.000401948
0.000375136
0.000339769
0.000255433
0.000256107
0.000256801
0.000257519
0.000258262
0.000259031
0.00025983
0.00026066
0.000261524
0.000262424
0.000263363
0.000264344
0.00026537
0.000266443
0.000267565
0.000268742
0.000269976
0.000271273
0.000272638
0.000274076
0.000275595
0.0002772
0.000278902
0.000280709
0.000282632
0.000284683
0.000286876
0.000289224
0.000291744
0.000294454
0.000297372
0.000300519
0.000303916
0.000307585
0.00031155
0.000315835
0.000320463
0.000325458
0.000330845
0.000336645
0.000342879
0.000349566
0.000356719
0.000364346
0.000372447
0.000381012
0.000390014
0.000399413
0.000409138
0.000419105
0.000429152
0.00043912
0.000448803
0.000457941
0.000466238
0.000473332
0.000478862
0.000482343
0.0004835
0.000481618
0.000476857
0.00046775
0.000455825
0.000438419
0.000418069
0.000393481
0.000364297
0.000327001
0.000284573
0.000274511
0.00027537
0.000276256
0.000277173
0.000278123
0.000279107
0.00028013
0.000281194
0.000282302
0.000283457
0.000284661
0.000285919
0.000287235
0.000288613
0.000290059
0.000291577
0.000293173
0.000294854
0.000296626
0.000298498
0.000300476
0.000302571
0.000304792
0.00030715
0.000309656
0.000312325
0.00031517
0.000318205
0.000321446
0.000324911
0.000328616
0.000332579
0.000336817
0.000341349
0.00034619
0.000351357
0.000356863
0.000362722
0.000368944
0.000375534
0.000382495
0.000389823
0.000397506
0.000405523
0.000413839
0.000422405
0.000431152
0.000439987
0.000448793
0.00045742
0.000465685
0.000473375
0.000480215
0.000485914
0.000490156
0.000492586
0.000492869
0.00049054
0.000485542
0.000477004
0.000465683
0.000449296
0.000431367
0.000406572
0.000381667
0.000347845
0.000309569
0.000267991
0.00022708
0.000299105
0.000300256
0.000301446
0.000302681
0.00030396
0.000305287
0.000306665
0.000308098
0.00030959
0.000311146
0.000312769
0.000314466
0.00031624
0.000318099
0.000320047
0.000322091
0.000324237
0.000326493
0.000328866
0.000331364
0.000333994
0.000336765
0.000339686
0.000342766
0.000346014
0.000349442
0.000353058
0.000356873
0.000360898
0.000365143
0.000369618
0.000374333
0.000379296
0.000384515
0.000389994
0.000395737
0.000401746
0.000408016
0.00041454
0.000421306
0.000428293
0.000435472
0.000442804
0.000450234
0.000457695
0.000465099
0.000472338
0.000479281
0.000485769
0.00049162
0.000496622
0.000500539
0.000503107
0.000504045
0.000503029
0.000499758
0.000493917
0.000485171
0.000473672
0.000458389
0.000440713
0.000417432
0.000394568
0.000361541
0.000329412
0.000285795
0.000247833
0.000207019
0.000162036
0.000332263
0.000333893
0.000335579
0.000337325
0.000339133
0.000341007
0.00034295
0.000344966
0.000347059
0.000349232
0.000351489
0.000353834
0.000356273
0.000358809
0.000361447
0.000364191
0.000367046
0.000370017
0.000373107
0.000376321
0.000379663
0.000383137
0.000386748
0.000390497
0.000394391
0.00039843
0.00040262
0.000406962
0.000411459
0.000416113
0.000420924
0.000425893
0.000431017
0.000436293
0.000441716
0.000447274
0.000452956
0.000458743
0.000464611
0.000470527
0.00047645
0.000482329
0.000488098
0.000493678
0.000498975
0.000503873
0.00050824
0.000511922
0.000514742
0.00051651
0.000517009
0.000516008
0.000513273
0.000508533
0.000501538
0.000492068
0.000479731
0.000464636
0.000446817
0.000425477
0.000402022
0.00037225
0.000340795
0.000298436
0.000265706
0.000219007
0.000185644
0.000143326
0.00010906
0.000379639
0.000381978
0.000384379
0.000386844
0.000389374
0.000391969
0.00039463
0.000397359
0.000400156
0.000403022
0.000405959
0.000408966
0.000412045
0.000415196
0.00041842
0.000421717
0.000425087
0.00042853
0.000432045
0.000435631
0.000439288
0.000443014
0.000446808
0.000450668
0.000454593
0.000458579
0.000462624
0.000466725
0.000470878
0.000475078
0.00047932
0.000483595
0.000487895
0.000492206
0.000496514
0.000500797
0.00050503
0.000509184
0.000513217
0.000517084
0.000520726
0.000524075
0.000527047
0.000529547
0.000531464
0.000532671
0.000533026
0.000532365
0.000530509
0.000527294
0.000522492
0.000515909
0.000507379
0.000496583
0.000483498
0.0004679
0.00044922
0.0004287
0.000405117
0.000377982
0.000345293
0.000307386
0.000272328
0.000230145
0.00019798
0.000153951
0.00012586
8.87719e-05
7.14158e-05
0.000447954
0.000450838
0.000453748
0.000456686
0.000459647
0.000462628
0.00046563
0.000468649
0.000471684
0.000474733
0.000477795
0.000480868
0.000483949
0.000487037
0.00049013
0.000493224
0.000496315
0.0004994
0.000502476
0.000505539
0.000508584
0.000511609
0.000514609
0.00051758
0.000520519
0.000523419
0.000526275
0.00052908
0.000531826
0.000534506
0.000537107
0.000539617
0.000542021
0.000544295
0.00054642
0.000548362
0.000550089
0.000551559
0.000552721
0.000553516
0.000553873
0.000553715
0.00055295
0.000551475
0.000549172
0.000545914
0.000541555
0.000535925
0.000528876
0.000520304
0.00050989
0.000497615
0.000483376
0.000466616
0.000448219
0.000427012
0.000402863
0.000374986
0.000343154
0.00030758
0.000272468
0.000235128
0.00020061
0.000162302
0.000131787
9.81863e-05
7.46481e-05
5.42404e-05
4.80896e-05
0.000534017
0.000536563
0.000539092
0.000541602
0.000544066
0.000546483
0.000548856
0.000551183
0.000553465
0.0005557
0.000557886
0.000560022
0.000562103
0.000564123
0.000566077
0.00056796
0.000569764
0.000571483
0.000573115
0.000574657
0.000576104
0.000577453
0.000578701
0.000579841
0.000580869
0.000581776
0.000582555
0.000583196
0.000583687
0.000584017
0.000584166
0.000584113
0.000583851
0.000583326
0.000582537
0.00058141
0.000579943
0.000578062
0.000575705
0.00057281
0.000569302
0.000565102
0.000560116
0.000554242
0.000547364
0.000539358
0.000530061
0.000519308
0.000507094
0.000493342
0.000477405
0.00046005
0.00044072
0.000418632
0.000394448
0.0003654
0.000333963
0.000299989
0.00026605
0.000231375
0.000197683
0.00016352
0.000131795
0.000102254
7.71754e-05
5.60449e-05
4.14081e-05
3.55395e-05
3.01521e-05
0.000619591
0.000620751
0.000621864
0.000622929
0.000623939
0.000624888
0.000625771
0.000626586
0.000627327
0.000627992
0.000628574
0.000629071
0.000629452
0.000629711
0.000629849
0.00062984
0.000629677
0.000629371
0.000628925
0.000628342
0.00062762
0.000626756
0.000625744
0.000624575
0.000623239
0.000621724
0.000620018
0.000618108
0.000615979
0.000613609
0.000610949
0.000607988
0.000604781
0.000601121
0.000597188
0.000592683
0.000587865
0.000582397
0.000576304
0.000569552
0.000562055
0.000553754
0.000544541
0.000534333
0.000523001
0.000510419
0.000496343
0.000480796
0.000464196
0.000445858
0.000424792
0.000402197
0.000375759
0.000347208
0.000315816
0.000284204
0.000252229
0.000220198
0.000187732
0.000156889
0.000127005
0.000100273
7.58103e-05
5.66215e-05
4.05238e-05
2.98397e-05
2.72926e-05
2.67126e-05
3.26709e-05
0.000681925
0.000681325
0.000680659
0.000679924
0.000679113
0.000678223
0.00067725
0.000676191
0.000675041
0.000673796
0.00067245
0.000670994
0.000669445
0.000667729
0.000665907
0.00066374
0.00066133
0.000658858
0.000656259
0.000653557
0.000650703
0.0006477
0.000644521
0.000641144
0.000637547
0.000633718
0.000629643
0.000625304
0.000620676
0.000615696
0.000610127
0.000604261
0.00059853
0.000591544
0.000585033
0.000576907
0.000569502
0.000560207
0.000550529
0.00054024
0.000529092
0.000517131
0.000504141
0.000490156
0.000474918
0.000458236
0.000439748
0.000420454
0.000398478
0.00037384
0.000346789
0.000318464
0.0002891
0.000260334
0.000229993
0.000200883
0.00017089
0.000143412
0.000115533
9.26099e-05
7.06008e-05
5.3498e-05
3.86191e-05
2.84231e-05
2.26368e-05
2.2828e-05
2.39027e-05
2.99573e-05
4.21324e-05
0.000702093
0.000699941
0.000697701
0.000695369
0.000692944
0.000690425
0.000687819
0.000685125
0.000682331
0.000679427
0.00067643
0.000673241
0.000670242
0.000666452
0.00066322
0.000659174
0.000655145
0.00065132
0.000646664
0.000642405
0.00063754
0.000632707
0.00062757
0.000622122
0.000616312
0.000610252
0.000603919
0.000597293
0.000590349
0.000583062
0.000575385
0.000567297
0.000558813
0.000549786
0.000540286
0.000530142
0.000519295
0.000508279
0.000496194
0.00048367
0.000469616
0.000455065
0.000439128
0.000421107
0.000401275
0.000379658
0.000356816
0.000332025
0.000306772
0.000280411
0.000253784
0.000226913
0.000199468
0.000173424
0.000146381
0.000122734
9.90799e-05
7.95548e-05
6.04568e-05
4.73038e-05
3.42988e-05
2.5463e-05
2.12184e-05
1.90237e-05
1.9197e-05
2.18235e-05
2.90289e-05
3.95858e-05
4.85654e-05
0.000670244
0.000667028
0.00066372
0.000660315
0.000656808
0.000653195
0.000649471
0.000645634
0.000641679
0.000637601
0.000633394
0.000629049
0.000624583
0.000619928
0.000615147
0.000610155
0.000604972
0.000599617
0.000594026
0.000588248
0.000582237
0.000576007
0.000569539
0.000562812
0.000555802
0.000548498
0.000540887
0.000532963
0.000524704
0.000516082
0.000507064
0.000497612
0.000487686
0.000477229
0.000466185
0.00045441
0.000441812
0.000428357
0.000413814
0.000398217
0.000381349
0.000363303
0.000343892
0.000323355
0.000302039
0.000279321
0.000256545
0.000232292
0.000208755
0.000184249
0.000160781
0.000137674
0.000116273
9.61916e-05
7.78861e-05
6.19166e-05
4.8457e-05
3.69708e-05
2.77012e-05
2.15026e-05
1.79068e-05
1.70088e-05
1.51077e-05
1.60049e-05
2.24432e-05
3.4256e-05
3.81179e-05
4.21315e-05
4.13981e-05
0.000577598
0.000574078
0.000570454
0.000566725
0.00056289
0.000558945
0.000554889
0.000550717
0.000546427
0.000542013
0.000537467
0.000532778
0.000527946
0.000522963
0.000517827
0.000512529
0.000507062
0.000501419
0.000495588
0.000489563
0.000483334
0.00047689
0.000470221
0.000463312
0.000456147
0.000448695
0.000440941
0.000432834
0.000424328
0.000415373
0.000405916
0.0003959
0.00038526
0.000373936
0.00036185
0.000349051
0.000335427
0.000320994
0.000305574
0.000289315
0.000271958
0.000253842
0.00023478
0.000215016
0.000194923
0.00017411
0.000154341
0.000133937
0.000115482
9.76041e-05
8.12459e-05
6.7093e-05
5.4335e-05
4.32269e-05
3.39846e-05
2.58424e-05
2.03211e-05
1.63773e-05
1.47203e-05
1.30108e-05
1.23097e-05
1.18491e-05
1.80906e-05
2.9272e-05
3.38568e-05
3.6398e-05
3.64389e-05
3.53879e-05
3.23991e-05
0.000425664
0.00042261
0.000419474
0.000416256
0.000412954
0.000409564
0.000406086
0.000402517
0.000398853
0.000395091
0.000391228
0.000387259
0.000383179
0.000378984
0.000374667
0.000370224
0.000365648
0.000360933
0.000356071
0.000351055
0.000345875
0.000340524
0.000334985
0.000329245
0.000323277
0.000316991
0.000310312
0.000303207
0.000295638
0.000287566
0.000278947
0.000269742
0.000259894
0.000249385
0.00023813
0.000226163
0.000213342
0.000199893
0.000185554
0.000170869
0.000155424
0.00014014
0.000124525
0.000109581
9.50636e-05
8.13947e-05
6.90881e-05
5.76131e-05
4.78846e-05
3.93937e-05
3.18315e-05
2.63279e-05
2.02509e-05
1.61604e-05
1.32911e-05
1.15424e-05
9.70763e-06
8.96648e-06
7.38777e-06
7.39147e-06
1.36829e-05
2.00724e-05
2.52225e-05
3.09864e-05
3.32975e-05
3.31919e-05
3.26455e-05
3.00672e-05
2.66682e-05
0.000237464
0.00023562
0.000233722
0.00023177
0.000229766
0.000227708
0.000225597
0.00022343
0.000221206
0.000218922
0.000216577
0.000214168
0.000211692
0.000209146
0.000206524
0.000203827
0.000201041
0.000198174
0.000195205
0.000192144
0.00018897
0.000185695
0.000182246
0.000178656
0.000174682
0.000170298
0.000165479
0.0001602
0.000154421
0.000148157
0.000141397
0.000134161
0.000126438
0.000118312
0.000109761
0.000100984
9.192e-05
8.29207e-05
7.38833e-05
6.53942e-05
5.71963e-05
4.99285e-05
4.30136e-05
3.69196e-05
3.13122e-05
2.6457e-05
2.22356e-05
1.84771e-05
1.55342e-05
1.26677e-05
1.05872e-05
8.4323e-06
7.05025e-06
5.94171e-06
4.86456e-06
3.38735e-06
3.0099e-06
3.86106e-06
5.60164e-06
7.90487e-06
1.19152e-05
1.74542e-05
2.28129e-05
2.668e-05
2.92262e-05
3.03885e-05
3.03442e-05
2.84765e-05
2.56303e-05
7.22473e-05
7.15905e-05
7.09172e-05
7.02287e-05
6.95241e-05
6.88027e-05
6.80641e-05
6.73076e-05
6.65333e-05
6.57396e-05
6.49269e-05
6.40937e-05
6.32389e-05
6.23637e-05
6.1461e-05
6.05421e-05
5.95833e-05
5.86173e-05
5.75966e-05
5.65659e-05
5.54984e-05
5.43424e-05
5.29371e-05
5.12695e-05
4.94025e-05
4.73663e-05
4.51961e-05
4.29175e-05
4.05739e-05
3.81827e-05
3.5774e-05
3.33734e-05
3.10082e-05
2.87009e-05
2.647e-05
2.43332e-05
2.23026e-05
2.03829e-05
1.85742e-05
1.68281e-05
1.51628e-05
1.34829e-05
1.19181e-05
1.0394e-05
8.97392e-06
7.57565e-06
6.26678e-06
5.04644e-06
3.96377e-06
2.85312e-06
2.03919e-06
1.4308e-06
1.24629e-06
1.20644e-06
1.06044e-06
9.3323e-07
8.9287e-07
8.83593e-07
1.04139e-06
1.55373e-06
2.65828e-06
4.86392e-06
8.23522e-06
1.10969e-05
1.41848e-05
1.63618e-05
1.72286e-05
1.69117e-05
1.56297e-05
7.46398e-06
7.54791e-06
7.63256e-06
7.71745e-06
7.80252e-06
7.8875e-06
7.97218e-06
8.05673e-06
8.14055e-06
8.22417e-06
8.30672e-06
8.38875e-06
8.4695e-06
8.54915e-06
8.62722e-06
8.70349e-06
8.77768e-06
8.84911e-06
8.91811e-06
8.98257e-06
9.04462e-06
9.09948e-06
9.15254e-06
9.19534e-06
9.23221e-06
9.26261e-06
9.28048e-06
9.28289e-06
9.27086e-06
9.24037e-06
9.18817e-06
9.11061e-06
9.00356e-06
8.86185e-06
8.67948e-06
8.44928e-06
8.16284e-06
7.81107e-06
7.3813e-06
6.86155e-06
6.23754e-06
5.49151e-06
4.61517e-06
3.59036e-06
2.48225e-06
1.41062e-06
5.85683e-07
2.11754e-07
1.7876e-07
1.89417e-07
1.79511e-07
1.5589e-07
1.31808e-07
9.52291e-08
7.0981e-08
6.14667e-08
5.77429e-08
5.74383e-08
6.66107e-08
8.65333e-08
1.16246e-07
1.55998e-07
2.07035e-07
2.81357e-07
3.74885e-07
4.64582e-07
5.25421e-07
5.81552e-07
5.72127e-07
0.000169358
0.000169351
0.000169355
0.000169351
0.00016936
0.00016935
0.000169348
0.000169309
0.000169242
0.000169177
0.000169135
0.000169192
0.000169293
0.000169358
0.000169382
0.000169272
0.000169317
0.00016934
0.000169376
0.000169333
0.000169404
0.000169547
0.000169564
0.000169605
0.000169629
0.000169584
0.000169681
0.000169757
0.000169921
0.000169974
0.000169947
0.00017009
0.000170252
0.000170345
0.000170463
0.000170517
0.000170708
0.000170816
0.000170878
0.000171172
0.000171131
0.000171227
0.000171216
0.000171287
0.000171537
0.000171583
0.000171611
0.000171662
0.000171788
0.000171864
0.000171957
0.000172136
0.000172266
0.000172367
0.000172498
0.000172586
0.000172673
0.000172741
0.000172793
0.000170901
0.0001709
0.000170883
0.000170879
0.000170873
0.000170837
0.000170784
0.000170715
0.00017068
0.000170705
0.000170722
0.000170766
0.000170795
0.000170808
0.000170761
0.000170749
0.000170794
0.000170811
0.000170805
0.000170817
0.000170925
0.000171013
0.000171036
0.000171097
0.000171101
0.000171076
0.000171187
0.000171299
0.000171416
0.000171484
0.000171519
0.000171642
0.0001718
0.000171903
0.000172068
0.000172144
0.000172311
0.000172466
0.000172535
0.000172817
0.000172886
0.000172983
0.000173062
0.000173084
0.000173244
0.000173388
0.000173468
0.000173547
0.000173638
0.000173714
0.000173787
0.000173886
0.000174025
0.000174073
0.000174218
0.000174317
0.000174425
0.000174507
0.000174595
0.000172792
0.000172765
0.000172707
0.000172663
0.000172605
0.000172541
0.000172493
0.000172469
0.000172487
0.0001725
0.000172499
0.000172503
0.000172502
0.000172474
0.000172467
0.000172482
0.000172509
0.000172498
0.000172499
0.000172585
0.000172684
0.000172737
0.000172767
0.000172835
0.000172831
0.00017284
0.000172958
0.000173095
0.000173187
0.000173272
0.000173356
0.00017347
0.000173626
0.000173746
0.000173937
0.000174047
0.000174205
0.000174386
0.000174469
0.000174742
0.000174897
0.000175012
0.000175152
0.000175174
0.000175296
0.000175444
0.00017559
0.000175718
0.00017583
0.000175923
0.000176006
0.000176097
0.000176212
0.000176227
0.000176348
0.000176454
0.000176559
0.000176631
0.000176711
0.0001749
0.000174826
0.000174763
0.000174684
0.000174619
0.000174566
0.00017452
0.000174533
0.000174525
0.000174517
0.000174518
0.000174501
0.000174478
0.00017447
0.00017446
0.000174476
0.000174477
0.000174471
0.000174538
0.000174633
0.00017472
0.000174755
0.000174799
0.000174862
0.000174858
0.000174899
0.000175026
0.00017518
0.000175265
0.000175367
0.000175489
0.000175604
0.000175765
0.000175905
0.000176117
0.000176264
0.000176428
0.000176629
0.00017673
0.000176988
0.000177212
0.000177359
0.000177541
0.000177635
0.000177753
0.00017788
0.000178044
0.000178208
0.000178362
0.000178487
0.000178594
0.000178698
0.000178808
0.000178891
0.000178993
0.000179091
0.000179193
0.000179274
0.000179359
0.000177291
0.00017724
0.000177171
0.000177108
0.000177041
0.00017698
0.000176952
0.000176903
0.000176898
0.000176868
0.000176857
0.000176824
0.000176796
0.00017678
0.000176785
0.000176795
0.000176791
0.000176839
0.000176914
0.000177
0.000177079
0.000177114
0.000177167
0.000177225
0.000177224
0.000177304
0.000177439
0.000177605
0.000177696
0.000177815
0.00017797
0.000178095
0.000178266
0.000178427
0.000178658
0.000178845
0.000179027
0.000179252
0.00017938
0.000179619
0.000179895
0.000180091
0.000180305
0.00018046
0.000180615
0.000180755
0.000180921
0.000181103
0.000181288
0.000181453
0.000181598
0.000181732
0.000181862
0.000181982
0.000182102
0.000182217
0.000182329
0.000182427
0.000182529
0.000180103
0.000180046
0.00017999
0.000179937
0.000179892
0.000179815
0.000179768
0.000179697
0.000179665
0.00017961
0.000179583
0.000179533
0.000179516
0.000179509
0.000179517
0.000179519
0.000179542
0.0001796
0.000179677
0.000179767
0.000179835
0.000179876
0.000179934
0.00017999
0.000180008
0.000180111
0.00018026
0.000180439
0.000180545
0.000180685
0.000180869
0.000181013
0.000181197
0.000181381
0.00018163
0.000181858
0.000182069
0.000182323
0.000182493
0.000182718
0.000183023
0.000183276
0.000183529
0.000183737
0.000183938
0.000184116
0.0001843
0.000184497
0.000184705
0.000184903
0.000185088
0.000185261
0.000185425
0.00018558
0.00018573
0.00018587
0.000186005
0.000186127
0.000186253
0.000183394
0.000183331
0.000183269
0.000183204
0.000183136
0.000183071
0.000183001
0.000182929
0.000182869
0.000182806
0.000182773
0.000182736
0.000182723
0.000182721
0.000182724
0.000182729
0.000182765
0.000182832
0.000182921
0.000183007
0.000183069
0.000183117
0.00018318
0.000183241
0.000183278
0.000183405
0.000183572
0.000183765
0.000183893
0.000184056
0.000184269
0.000184439
0.000184642
0.000184851
0.000185122
0.00018539
0.000185639
0.000185924
0.00018615
0.00018638
0.000186694
0.000186998
0.0001873
0.000187565
0.000187815
0.000188043
0.000188264
0.000188487
0.000188718
0.000188947
0.000189168
0.000189379
0.000189582
0.000189774
0.000189958
0.000190131
0.000190297
0.000190449
0.000190605
0.000187221
0.000187146
0.000187074
0.000186996
0.000186918
0.000186838
0.000186765
0.000186691
0.000186625
0.000186576
0.000186539
0.000186509
0.000186492
0.000186489
0.000186493
0.000186513
0.000186565
0.000186646
0.000186734
0.000186813
0.000186874
0.000186931
0.000187
0.000187073
0.000187132
0.000187283
0.000187471
0.00018768
0.000187837
0.000188028
0.00018827
0.000188474
0.000188702
0.00018894