/*--------------------------------*- C++ -*----------------------------------*\
| =========                 |                                                 |
| \\      /  F ield         | OpenFOAM: The Open Source CFD Toolbox           |
|  \\    /   O peration     | Version:  2312                                  |
|   \\  /    A nd           | Website:  www.openfoam.com                      |
|    \\/     M anipulation  |                                                 |
\*---------------------------------------------------------------------------*/
FoamFile
{
    version     2.0;
    format      ascii;
    arch        "LSB;label=32;scalar=64";
    class       volScalarField;
    location    "1100";
    object      omega;
}
// * * * * * * * * * * * * * * * * * * * * * * * * * * * * * * * * * * * * * //

dimensions      [0 0 -1 0 0 0 0];

internalField   nonuniform List<scalar> 
76025
(
0.0297822
0.0297801
0.0297795
0.0297794
0.0297798
0.0297915
0.0297985
0.0298095
0.0298142
0.0298287
0.0298351
0.0298405
0.0298445
0.0298495
0.0298591
0.0298787
0.0299162
0.0299328
0.0299361
0.0299324
0.0299377
0.0299512
0.0299605
0.0299798
0.0299993
0.0300246
0.0300539
0.0300888
0.0301486
0.0302284
0.0302578
0.0302623
0.0302962
0.0303438
0.0304064
0.0304753
0.0305623
0.0306663
0.0307816
0.0309085
0.0310448
0.03121
0.0313946
0.0315931
0.0318067
0.0320436
0.0322986
0.0325746
0.0328746
0.0331892
0.033536
0.0339047
0.0343095
0.0347314
0.035227
0.0357341
0.0363231
0.0369721
0.03772
0.0385797
0.0395393
0.0406485
0.0419402
0.0434176
0.0451385
0.0470347
0.0491225
0.0515152
0.0538298
0.030079
0.0300897
0.0300988
0.0301068
0.0301125
0.0301216
0.0301294
0.0301395
0.0301485
0.0301644
0.0301803
0.0301964
0.0302107
0.0302247
0.0302414
0.0302593
0.0302808
0.0302989
0.0303156
0.0303322
0.0303515
0.0303764
0.030403
0.0304345
0.0304714
0.0305102
0.0305577
0.0306072
0.0306898
0.0307803
0.0308431
0.0308884
0.0309379
0.0309946
0.0310658
0.0311514
0.031251
0.0313673
0.0314955
0.0316377
0.0317962
0.0319701
0.0321617
0.0323677
0.0325932
0.0328376
0.0331028
0.033388
0.0336977
0.0340358
0.0344022
0.0348064
0.0352475
0.0357383
0.0362778
0.0368884
0.0375685
0.0383379
0.0392072
0.0401946
0.0413193
0.0425851
0.0440148
0.0456196
0.0474115
0.049393
0.05162
0.0540724
0.0568152
0.0304688
0.0304806
0.0304913
0.0305023
0.0305136
0.0305282
0.0305471
0.0305736
0.0306076
0.030615
0.0306162
0.0306252
0.0306393
0.0306563
0.0306776
0.0307014
0.0307281
0.0307559
0.0307846
0.030815
0.0308472
0.0308828
0.0309216
0.0309644
0.0310128
0.0310654
0.0311246
0.0311887
0.0312634
0.031344
0.0314235
0.0315001
0.0315791
0.0316639
0.0317581
0.0318637
0.031982
0.032114
0.0322599
0.0324196
0.0325948
0.0327862
0.0329951
0.0332214
0.0334666
0.0337324
0.0340214
0.0343349
0.0346773
0.0350514
0.0354623
0.0359145
0.0364151
0.0369688
0.037585
0.038274
0.0390447
0.0399125
0.0408885
0.0419933
0.0432338
0.04463
0.046185
0.0479172
0.0498361
0.0519573
0.0543143
0.056935
0.0598887
0.0309314
0.0309449
0.0309583
0.0309722
0.0309871
0.0310048
0.0310258
0.0310493
0.0310737
0.0310939
0.0311123
0.0311317
0.0311534
0.031177
0.0312033
0.0312314
0.0312616
0.0312944
0.0313298
0.0313689
0.0314118
0.0314589
0.0315102
0.0315657
0.0316261
0.0316913
0.0317619
0.0318376
0.0319195
0.0320066
0.0320981
0.0321933
0.0322937
0.0324007
0.032516
0.0326416
0.0327787
0.0329287
0.0330924
0.0332706
0.0334648
0.0336761
0.0339064
0.0341561
0.0344272
0.034722
0.0350432
0.0353935
0.0357771
0.0361977
0.036661
0.0371721
0.0377383
0.0383667
0.039067
0.0398498
0.0407265
0.0417112
0.0428145
0.0440541
0.0454328
0.04697
0.0486559
0.0505216
0.052558
0.0548089
0.057319
0.0601212
0.0633734
0.0314764
0.0314929
0.0315101
0.0315281
0.0315472
0.0315684
0.031592
0.0316174
0.0316438
0.0316709
0.0316987
0.0317281
0.0317593
0.0317918
0.0318267
0.0318645
0.0319056
0.0319492
0.0319954
0.0320438
0.032095
0.0321501
0.0322092
0.0322729
0.0323422
0.0324179
0.0325006
0.0325902
0.0326863
0.0327882
0.0328953
0.0330075
0.0331253
0.0332499
0.0333829
0.0335259
0.0336806
0.0338486
0.0340313
0.03423
0.0344464
0.0346821
0.0349391
0.0352188
0.0355233
0.0358551
0.0362177
0.0366141
0.0370491
0.0375271
0.0380547
0.0386376
0.0392845
0.0400031
0.0408044
0.0416981
0.0426964
0.0438102
0.0450483
0.046423
0.0479326
0.0495969
0.0513997
0.0533929
0.0555513
0.0579845
0.0606942
0.0637833
0.0674353
0.032118
0.0321392
0.0321612
0.0321843
0.0322084
0.0322343
0.0322622
0.032292
0.0323234
0.0323567
0.0323916
0.0324288
0.0324682
0.0325095
0.0325533
0.0326004
0.0326515
0.0327061
0.0327636
0.0328234
0.0328854
0.0329504
0.0330192
0.0330925
0.0331715
0.0332571
0.0333505
0.033452
0.0335613
0.0336778
0.0338009
0.0339302
0.0340662
0.0342097
0.0343624
0.0345258
0.0347018
0.0348922
0.0350988
0.0353235
0.035568
0.0358345
0.0361253
0.0364427
0.0367887
0.0371664
0.0375797
0.0380325
0.0385302
0.039078
0.0396833
0.0403526
0.0410957
0.04192
0.0428372
0.0438547
0.0449839
0.0462307
0.0476023
0.0491049
0.0507386
0.0525237
0.0544521
0.056596
0.0589255
0.0616203
0.0646007
0.068122
0.072296
0.0328736
0.0329006
0.0329285
0.0329575
0.0329877
0.0330195
0.0330531
0.0330888
0.0331264
0.0331662
0.0332083
0.0332527
0.0332998
0.0333494
0.0334019
0.0334576
0.0335173
0.0335809
0.0336481
0.0337186
0.0337922
0.0338693
0.0339505
0.0340368
0.0341286
0.0342271
0.0343332
0.0344475
0.0345703
0.0347014
0.0348406
0.0349879
0.0351436
0.0353088
0.0354847
0.0356731
0.0358757
0.0360945
0.0363316
0.036589
0.0368689
0.037174
0.0375067
0.0378705
0.0382675
0.0387013
0.0391765
0.0396979
0.0402716
0.0409037
0.0416022
0.042374
0.0432288
0.0441732
0.0452174
0.0463658
0.0476274
0.0490034
0.0505011
0.0521245
0.0538824
0.0558003
0.0578901
0.0602378
0.0628247
0.0658848
0.0692367
0.0734051
0.0781372
0.0337661
0.0337996
0.0338342
0.03387
0.0339073
0.0339461
0.0339868
0.0340296
0.0340745
0.0341218
0.0341717
0.0342242
0.0342796
0.0343379
0.0343994
0.0344643
0.0345331
0.0346061
0.0346832
0.0347645
0.0348501
0.0349402
0.0350356
0.0351364
0.0352436
0.0353578
0.0354798
0.0356103
0.0357498
0.0358986
0.0360569
0.0362251
0.0364038
0.036594
0.0367973
0.0370152
0.0372495
0.0375024
0.0377761
0.038073
0.0383958
0.0387476
0.0391312
0.0395512
0.04001
0.040512
0.0410626
0.0416674
0.0423329
0.0430656
0.0438733
0.0447625
0.0457412
0.0468138
0.0479881
0.0492651
0.0506525
0.05215
0.05377
0.0555207
0.0574266
0.0595226
0.0618462
0.0644875
0.0674574
0.0710006
0.074882
0.0799349
0.0851791
0.0348247
0.0348652
0.0349073
0.0349509
0.0349962
0.0350432
0.0350922
0.0351434
0.035197
0.0352532
0.0353121
0.0353739
0.0354388
0.0355071
0.0355788
0.0356543
0.0357339
0.0358179
0.0359066
0.0360003
0.0360991
0.0362037
0.0363142
0.0364311
0.0365552
0.0366872
0.0368279
0.0369778
0.0371378
0.0373082
0.0374898
0.0376832
0.0378893
0.0381093
0.0383447
0.0385974
0.0388692
0.0391626
0.0394802
0.0398247
0.0401996
0.040608
0.0410543
0.0415429
0.0420782
0.0426643
0.043307
0.0440121
0.044786
0.0456345
0.0465639
0.0475788
0.0486848
0.0498841
0.0511823
0.0525801
0.0540878
0.0557098
0.0574691
0.0593844
0.0614987
0.0638582
0.0665226
0.0695819
0.0730871
0.0772481
0.0818994
0.088022
0.0938488
0.0360854
0.0361341
0.0361846
0.0362371
0.0362915
0.036348
0.0364068
0.036468
0.0365318
0.0365984
0.036668
0.0367408
0.0368171
0.0368971
0.036981
0.0370691
0.0371617
0.0372592
0.0373619
0.0374703
0.0375848
0.0377056
0.0378332
0.0379683
0.0381115
0.0382638
0.0384258
0.0385985
0.0387826
0.0389789
0.0391884
0.039412
0.039651
0.0399067
0.0401809
0.0404756
0.0407932
0.0411364
0.0415082
0.0419121
0.0423518
0.0428315
0.043356
0.0439296
0.0445587
0.0452462
0.0459973
0.0468171
0.0477106
0.0486819
0.0497351
0.0508728
0.0520993
0.0534166
0.0548323
0.0563517
0.0579931
0.0597711
0.0617229
0.0638802
0.066302
0.0690458
0.0721858
0.0758195
0.0800339
0.0849926
0.0907429
0.0980249
0.105058
0.0375938
0.0376525
0.0377131
0.037776
0.0378412
0.0379089
0.0379791
0.0380521
0.038128
0.0382071
0.0382895
0.0383756
0.0384656
0.0385597
0.0386583
0.0387616
0.0388702
0.0389842
0.0391044
0.0392308
0.039364
0.0395043
0.0396526
0.0398094
0.0399756
0.0401522
0.04034
0.0405401
0.0407536
0.0409816
0.0412254
0.0414862
0.0417657
0.0420658
0.0423884
0.042736
0.0431113
0.0435175
0.043958
0.0444368
0.0449579
0.0455257
0.0461447
0.0468198
0.0475556
0.0483563
0.0492241
0.0501624
0.0511743
0.0522627
0.0534307
0.0546814
0.0560211
0.0574563
0.0590015
0.0606714
0.0624957
0.0645015
0.0667394
0.0692532
0.0721129
0.075391
0.0791673
0.0835702
0.0887005
0.0947344
0.101971
0.110538
0.120321
0.0394095
0.0394805
0.0395538
0.0396295
0.0397079
0.039789
0.0398732
0.0399605
0.0400512
0.0401455
0.0402437
0.040346
0.0404528
0.0405645
0.0406813
0.0408037
0.0409321
0.041067
0.0412087
0.0413575
0.0415143
0.0416795
0.041854
0.0420386
0.0422343
0.0424421
0.0426632
0.0428989
0.0431505
0.0434196
0.0437078
0.0440168
0.0443488
0.0447058
0.0450905
0.0455054
0.0459537
0.0464386
0.0469637
0.0475327
0.0481494
0.0488177
0.0495412
0.0503237
0.0511684
0.0520788
0.0530568
0.0541036
0.0552219
0.0564158
0.057691
0.0590552
0.0605208
0.0621033
0.0638264
0.0657165
0.0678141
0.0701581
0.0728089
0.0758237
0.0792778
0.0832738
0.0878829
0.093314
0.0996357
0.10718
0.116313
0.126785
0.14114
0.0416122
0.0416989
0.0417881
0.0418802
0.0419754
0.0420738
0.0421756
0.0422812
0.0423907
0.0425045
0.0426229
0.0427462
0.0428747
0.043009
0.0431496
0.0432967
0.0434507
0.0436123
0.0437819
0.0439603
0.0441483
0.0443466
0.0445562
0.0447781
0.0450135
0.0452635
0.0455297
0.0458134
0.0461164
0.0464405
0.0467875
0.0471596
0.0475591
0.0479883
0.0484498
0.0489463
0.0494805
0.0500555
0.0506741
0.0513393
0.052054
0.052821
0.0536429
0.0545225
0.0554624
0.056466
0.0575364
0.0586799
0.059898
0.0612008
0.0625996
0.06411
0.0657527
0.0675531
0.0695442
0.0717631
0.0742585
0.0770814
0.0802994
0.0839916
0.0882309
0.0931891
0.0988867
0.105729
0.113641
0.123343
0.134924
0.148868
0.167486
0.0443125
0.0444199
0.0445304
0.0446443
0.0447619
0.0448835
0.0450092
0.0451395
0.0452746
0.0454149
0.0455609
0.0457129
0.0458715
0.0460368
0.0462094
0.0463899
0.0465789
0.0467772
0.0469855
0.0472047
0.0474357
0.0476795
0.0479372
0.0482099
0.0484989
0.0488057
0.0491317
0.0494785
0.0498477
0.0502413
0.050661
0.0511088
0.051587
0.0520974
0.0526423
0.0532237
0.0538438
0.0545047
0.0552087
0.055958
0.056755
0.0576023
0.0585027
0.05946
0.0604784
0.0615638
0.0627235
0.0639671
0.0653066
0.0667591
0.0683385
0.07007
0.0719822
0.0741098
0.076493
0.0791798
0.0822263
0.0857007
0.0896773
0.0942776
0.0995566
0.105837
0.112976
0.121857
0.13192
0.144756
0.159892
0.178909
0.203588
0.0476734
0.0478099
0.0479504
0.0480954
0.0482451
0.0483997
0.0485598
0.0487257
0.0488978
0.0490763
0.0492617
0.0494543
0.0496548
0.0498637
0.0500818
0.0503096
0.0505478
0.0507974
0.0510591
0.0513339
0.0516226
0.0519264
0.0522462
0.0525833
0.0529387
0.0533138
0.0537098
0.054128
0.0545698
0.0550366
0.0555299
0.0560512
0.0566021
0.0571842
0.057799
0.0584483
0.059134
0.0598584
0.0606238
0.0614332
0.0622903
0.0631994
0.064166
0.0651968
0.0663002
0.0674866
0.0687686
0.0701619
0.0716848
0.07336
0.0752135
0.0772783
0.0795857
0.0821803
0.08511
0.0884381
0.0922288
0.0965828
0.10158
0.107422
0.114116
0.122285
0.131376
0.143384
0.156267
0.174076
0.194434
0.221222
0.254868
0.0519511
0.052131
0.0523162
0.0525074
0.0527044
0.0529075
0.0531171
0.0533337
0.0535578
0.0537896
0.0540297
0.0542785
0.0545366
0.0548045
0.0550828
0.055372
0.0556729
0.0559859
0.056312
0.0566517
0.0570057
0.0573749
0.05776
0.0581619
0.0585813
0.0590191
0.0594762
0.0599537
0.0604524
0.0609736
0.0615186
0.0620886
0.0626854
0.0633107
0.0639667
0.0646559
0.0653815
0.0661471
0.0669571
0.0678171
0.0687335
0.0697141
0.0707681
0.0719066
0.0731426
0.0744914
0.0759708
0.0776021
0.0794095
0.0814218
0.0836725
0.0862022
0.0890557
0.0922957
0.0959722
0.100175
0.10498
0.11055
0.116959
0.12457
0.133272
0.144241
0.156089
0.173066
0.189621
0.216344
0.243923
0.282816
0.340182
0.0575417
0.0577822
0.0580287
0.0582817
0.0585413
0.0588076
0.0590809
0.0593616
0.0596498
0.0599458
0.06025
0.0605626
0.060884
0.0612144
0.0615542
0.0619038
0.0622634
0.0626335
0.0630146
0.0634069
0.0638109
0.0642272
0.0646562
0.0650987
0.0655554
0.066027
0.0665146
0.0670192
0.0675423
0.0680855
0.0686507
0.0692403
0.069857
0.070504
0.0711853
0.0719054
0.0726696
0.0734844
0.074357
0.075296
0.0763114
0.0774145
0.0786185
0.0799386
0.0813922
0.0829992
0.084783
0.0867701
0.0889919
0.0914853
0.0942937
0.0974707
0.101077
0.1052
0.109912
0.115341
0.121575
0.128897
0.137349
0.147594
0.159288
0.174514
0.190626
0.215635
0.237798
0.280754
0.315993
0.386566
0.460332
0.0649235
0.0652295
0.0655405
0.0658567
0.0661781
0.0665045
0.0668361
0.067173
0.0675153
0.067863
0.0682161
0.0685749
0.0689394
0.0693099
0.0696865
0.0700694
0.070459
0.0708556
0.0712594
0.0716711
0.0720911
0.0725201
0.072959
0.0734089
0.0738708
0.0743464
0.0748373
0.0753456
0.0758737
0.0764246
0.0770016
0.0776088
0.0782505
0.0789322
0.07966
0.0804406
0.0812822
0.0821938
0.0831857
0.0842697
0.085459
0.0867688
0.088216
0.0898204
0.0916043
0.0935935
0.0958179
0.0983127
0.101119
0.104289
0.107881
0.111971
0.116648
0.122041
0.128242
0.135466
0.143817
0.153786
0.165339
0.179699
0.196132
0.218165
0.241904
0.279406
0.313084
0.380237
0.435295
0.555609
0.668291
0.0744092
0.0747603
0.0751133
0.0754684
0.0758254
0.0761842
0.0765448
0.0769074
0.0772719
0.0776385
0.0780073
0.0783787
0.0787527
0.0791298
0.0795104
0.0798947
0.0802835
0.0806772
0.0810767
0.0814829
0.0818969
0.08232
0.0827538
0.0832001
0.0836611
0.0841392
0.0846374
0.0851588
0.0857075
0.0862877
0.0869047
0.087564
0.0882723
0.0890369
0.0898662
0.0907696
0.0917577
0.0928427
0.094038
0.0953589
0.0968226
0.0984489
0.10026
0.102282
0.104544
0.107082
0.109936
0.113155
0.116801
0.120946
0.125682
0.131118
0.137402
0.144707
0.153175
0.163172
0.174841
0.189017
0.20565
0.226893
0.251547
0.285023
0.323085
0.379676
0.439011
0.542834
0.646292
0.847104
1.06009
0.0861522
0.0865147
0.0868783
0.0872431
0.0876057
0.0879666
0.0883267
0.0886864
0.0890464
0.0894071
0.0897691
0.090133
0.0904992
0.090868
0.0912402
0.0916165
0.091998
0.0923857
0.0927812
0.0931859
0.0936017
0.0940308
0.0944757
0.094939
0.095424
0.0959343
0.096474
0.0970478
0.0976611
0.09832
0.0990313
0.0998028
0.100643
0.101562
0.10257
0.103681
0.104907
0.106266
0.107775
0.109453
0.111325
0.113418
0.115761
0.118392
0.121352
0.124694
0.128475
0.132774
0.137684
0.143319
0.149826
0.157369
0.166217
0.176528
0.188698
0.203271
0.220603
0.241987
0.267883
0.30101
0.340738
0.393665
0.459319
0.548449
0.665501
0.828929
1.0493
1.34235
1.65842
0.100644
0.100977
0.101313
0.101652
0.101993
0.102336
0.102683
0.103032
0.103385
0.103742
0.104104
0.104471
0.10484
0.105213
0.10559
0.105975
0.106369
0.106773
0.10719
0.107622
0.108071
0.108541
0.109036
0.109558
0.110113
0.110705
0.11134
0.112024
0.112765
0.11357
0.114449
0.115413
0.116472
0.117638
0.118929
0.120359
0.121951
0.123723
0.125701
0.127915
0.130398
0.133189
0.136335
0.139891
0.143919
0.148508
0.153738
0.159765
0.166712
0.174788
0.184241
0.195308
0.20853
0.223972
0.24291
0.265605
0.293595
0.327714
0.371497
0.424545
0.493963
0.581715
0.704485
0.861431
1.09206
1.36505
1.60666
1.75114
1.83527
0.119129
0.119427
0.119729
0.120038
0.120352
0.120672
0.121
0.121335
0.121678
0.122031
0.122394
0.122768
0.123155
0.123555
0.12397
0.124402
0.12485
0.125312
0.125795
0.126299
0.12683
0.127393
0.127991
0.128629
0.129315
0.130055
0.130856
0.131727
0.132678
0.133721
0.134867
0.136132
0.137531
0.139082
0.140808
0.142733
0.144884
0.147295
0.150004
0.153055
0.156501
0.160406
0.164843
0.169907
0.175692
0.182378
0.190072
0.199115
0.20963
0.222119
0.236938
0.254475
0.276055
0.301051
0.333436
0.370738
0.419562
0.476051
0.555954
0.643382
0.776917
0.933571
1.17983
1.46824
1.66501
1.7309
1.7797
1.76579
1.53729
0.143881
0.144166
0.14446
0.144762
0.145075
0.145398
0.145732
0.14608
0.146442
0.146819
0.147214
0.147628
0.148063
0.148522
0.149006
0.149518
0.150062
0.150633
0.151234
0.15187
0.152547
0.153269
0.154045
0.154882
0.155787
0.156771
0.157845
0.15902
0.160311
0.161734
0.163308
0.165054
0.166996
0.169166
0.171591
0.174316
0.177381
0.180844
0.184768
0.189227
0.194318
0.200152
0.206864
0.214651
0.223659
0.234342
0.246721
0.261753
0.279269
0.300695
0.32608
0.356915
0.394783
0.43866
0.497008
0.561905
0.650926
0.751798
0.905387
1.05945
1.33349
1.62285
1.80979
1.83464
1.8032
1.73773
1.49592
1.26862
1.08125
0.179334
0.179658
0.179996
0.180348
0.180715
0.181099
0.181501
0.181923
0.182367
0.182836
0.183331
0.183853
0.184408
0.184996
0.185623
0.186289
0.186993
0.187743
0.188544
0.189403
0.190326
0.191322
0.1924
0.19357
0.194846
0.19624
0.197769
0.199453
0.201313
0.203376
0.205671
0.208236
0.211111
0.214346
0.218001
0.222145
0.226868
0.232261
0.23847
0.24562
0.253945
0.263637
0.275024
0.288541
0.304402
0.323847
0.34626
0.374562
0.406779
0.447382
0.494733
0.553002
0.621323
0.705256
0.809227
0.938156
1.0946
1.30775
1.58083
1.85967
1.99222
1.98066
1.92311
1.73591
1.30291
1.04808
1.02882
0.957588
0.841953
0.23543
0.235895
0.236378
0.236882
0.237408
0.23796
0.238538
0.239147
0.23979
0.240468
0.241182
0.241933
0.242725
0.243564
0.244457
0.245411
0.24643
0.247524
0.2487
0.249969
0.25134
0.252826
0.25444
0.256199
0.258121
0.260234
0.262569
0.265164
0.26806
0.271309
0.274971
0.279118
0.283838
0.28923
0.295431
0.302578
0.310897
0.320561
0.331971
0.345317
0.361317
0.380181
0.402981
0.430317
0.462783
0.503006
0.548549
0.60687
0.671732
0.751378
0.846641
0.951613
1.08426
1.24155
1.44248
1.70487
1.96321
2.14995
2.19438
2.15265
2.07986
1.69658
1.10398
0.798648
0.768324
0.805212
0.817891
0.78206
0.716956
0.340801
0.341543
0.342311
0.34311
0.343943
0.344812
0.34572
0.346671
0.347669
0.348718
0.349823
0.35099
0.352224
0.353533
0.354924
0.356407
0.357994
0.359693
0.361522
0.363493
0.365625
0.367934
0.370449
0.373199
0.376234
0.379664
0.383583
0.388079
0.393258
0.399241
0.406183
0.414254
0.423695
0.434732
0.447768
0.463071
0.481377
0.502882
0.529011
0.55961
0.597298
0.641202
0.695234
0.757906
0.832864
0.921282
1.0209
1.14087
1.27176
1.4193
1.60056
1.76112
2.04957
2.29005
2.45473
2.46193
2.46737
2.3043
2.15901
1.58266
0.922446
0.692731
0.602608
0.590672
0.633744
0.66938
0.678399
0.658786
0.614537
0.588569
0.589961
0.591383
0.592839
0.594337
0.595883
0.597484
0.599148
0.600882
0.602695
0.604596
0.606595
0.608704
0.610934
0.613306
0.615823
0.618526
0.621403
0.624525
0.627869
0.631517
0.635457
0.639944
0.644981
0.651268
0.659002
0.668398
0.679721
0.693291
0.709457
0.728694
0.751448
0.778485
0.810292
0.848189
0.892478
0.945511
1.00684
1.08056
1.16443
1.26466
1.3765
1.50792
1.65167
1.81393
1.99004
2.17369
2.3796
2.56112
2.78476
2.93791
3.0639
3.01302
2.87606
2.6892
2.47297
1.87935
1.3392
0.95706
0.756153
0.637594
0.576658
0.56121
0.581354
0.611815
0.632961
0.642069
0.634345
0.598978
1.50652
1.50892
1.51137
1.51389
1.51647
1.51912
1.52184
1.52464
1.52753
1.53052
1.53363
1.53687
1.54028
1.54384
1.54769
1.55162
1.55612
1.56052
1.56586
1.57119
1.57709
1.58514
1.60033
1.62333
1.65391
1.69226
1.73869
1.7936
1.85745
1.93071
2.01397
2.10774
2.21271
2.32928
2.45806
2.59915
2.75245
2.91808
3.0946
3.2819
3.47565
3.67567
3.87254
4.06645
4.24002
4.39392
4.5047
4.5609
4.51398
4.43277
4.0047
3.51925
2.67614
1.95006
1.53485
1.36565
1.30831
1.33259
1.4137
1.43282
1.35082
1.16757
0.999371
0.97225
0.93931
0.924965
0.915141
0.904218
0.869132
8.70735
8.70149
8.69477
8.68714
8.67858
8.66905
8.65854
8.64705
8.63453
8.62103
8.60645
8.59087
8.57418
8.55644
8.53758
8.51759
8.49645
8.47411
8.45059
8.42574
8.39974
8.37217
8.34362
8.31301
8.28175
8.24849
8.21303
8.176
8.13672
8.09499
8.05063
8.00336
7.95287
7.89875
7.84054
7.7777
7.70964
7.63565
7.55491
7.46657
7.3696
7.26298
7.14614
7.01845
6.88401
6.75298
6.64139
6.56625
6.52408
6.48816
6.45119
6.41341
6.37628
6.33873
6.30249
6.26827
6.23533
6.20351
6.17317
6.14468
6.11794
6.09304
6.07003
6.04999
6.03266
6.01659
5.99992
5.98426
5.96566
0.0290608
0.0290685
0.0290771
0.0290843
0.0290929
0.0291009
0.0291071
0.0291128
0.0291171
0.0291224
0.0291283
0.0291534
0.029195
0.0292235
0.0292382
0.0292329
0.0292754
0.0293006
0.029317
0.029325
0.0293538
0.0293793
0.0293879
0.0293996
0.0294096
0.0294162
0.0294503
0.0294745
0.0295026
0.0295135
0.0295215
0.0295605
0.0295969
0.0296081
0.0296259
0.0296251
0.0296484
0.0296613
0.0296652
0.029705
0.0296965
0.0297061
0.0296977
0.0296976
0.0297185
0.0297253
0.0297238
0.0297216
0.0297202
0.0297142
0.0297093
0.0297159
0.0297188
0.0297213
0.0297302
0.0297382
0.0297471
0.0297543
0.0297652
0.0293048
0.0293079
0.0293145
0.0293185
0.0293225
0.0293288
0.0293318
0.0293376
0.0293458
0.0293607
0.029381
0.0294115
0.0294325
0.0294443
0.0294517
0.0294707
0.0295089
0.0295259
0.0295388
0.0295563
0.0295861
0.0296024
0.0296137
0.0296295
0.0296362
0.0296477
0.0296845
0.0297141
0.0297345
0.0297482
0.0297666
0.0298014
0.0298378
0.0298521
0.0298789
0.0298836
0.0299021
0.0299224
0.0299287
0.0299653
0.0299743
0.0299843
0.0299912
0.029987
0.0299939
0.0300108
0.0300183
0.03002
0.0300278
0.0300327
0.0300332
0.0300389
0.0300414
0.0300471
0.0300455
0.0300482
0.030051
0.0300584
0.0300672
0.0295875
0.0295885
0.0295939
0.0295972
0.0296019
0.0296081
0.0296139
0.0296228
0.0296367
0.0296549
0.0296745
0.0296907
0.0297021
0.0297128
0.029727
0.0297588
0.0297812
0.0297942
0.0298088
0.0298381
0.0298618
0.0298744
0.0298888
0.0299048
0.0299118
0.0299291
0.0299673
0.0300009
0.0300173
0.030034
0.0300607
0.0300932
0.0301299
0.0301487
0.0301805
0.0301929
0.0302096
0.0302338
0.0302434
0.0302778
0.0302998
0.0303153
0.0303261
0.0303424
0.0303422
0.0303552
0.0303674
0.0303752
0.030386
0.0303974
0.0304072
0.0304144
0.0304228
0.0304408
0.0304407
0.0304416
0.0304432
0.0304501
0.0304592
0.0299199
0.0299242
0.0299269
0.0299332
0.0299388
0.0299458
0.0299546
0.0299656
0.0299791
0.0299933
0.030005
0.0300169
0.0300278
0.0300422
0.030065
0.0300864
0.0301014
0.0301159
0.0301401
0.0301697
0.0301898
0.0302012
0.0302167
0.0302324
0.0302418
0.0302654
0.0303048
0.0303408
0.0303565
0.0303765
0.0304092
0.0304412
0.0304792
0.0305032
0.0305391
0.0305597
0.0305779
0.0306047
0.0306186
0.0306508
0.0306806
0.0307046
0.0307201
0.0307443
0.0307547
0.0307682
0.0307826
0.0307954
0.0308089
0.0308239
0.0308399
0.0308532
0.0308666
0.0308814
0.0308908
0.0308984
0.0309045
0.0309119
0.0309215
0.030322
0.0303215
0.0303248
0.0303288
0.0303357
0.0303449
0.0303517
0.0303635
0.0303717
0.0303842
0.0303926
0.0304046
0.0304182
0.0304353
0.0304531
0.0304692
0.0304852
0.0305057
0.0305344
0.0305598
0.0305778
0.0305899
0.0306065
0.0306219
0.0306352
0.0306643
0.0307053
0.0307431
0.0307605
0.0307839
0.0308215
0.0308548
0.0308948
0.030924
0.0309638
0.0309931
0.0310155
0.0310457
0.031065
0.0310965
0.0311305
0.0311628
0.0311851
0.031214
0.0312356
0.0312555
0.0312743
0.0312921
0.0313094
0.0313278
0.0313473
0.0313658
0.0313836
0.0314009
0.0314158
0.031429
0.0314408
0.0314517
0.0314642
0.0307999
0.0307994
0.0308003
0.0308016
0.0308031
0.0308121
0.0308172
0.0308278
0.0308334
0.0308444
0.0308517
0.0308659
0.0308786
0.0308942
0.0309096
0.0309267
0.0309473
0.0309726
0.0309991
0.0310209
0.0310382
0.031052
0.0310695
0.0310851
0.0311035
0.0311385
0.0311809
0.0312205
0.0312412
0.0312684
0.0313104
0.0313466
0.0313892
0.0314237
0.0314675
0.0315054
0.0315344
0.0315692
0.0315952
0.0316284
0.0316653
0.0317043
0.0317349
0.0317686
0.0317993
0.0318276
0.0318538
0.0318781
0.0319011
0.031924
0.0319473
0.0319701
0.0319922
0.0320134
0.0320333
0.0320516
0.0320689
0.0320847
0.0321018
0.0313627
0.031361
0.0313603
0.0313603
0.0313618
0.0313639
0.0313681
0.0313738
0.0313799
0.0313897
0.031398
0.0314106
0.0314235
0.0314385
0.0314556
0.0314757
0.0314991
0.031524
0.0315475
0.0315685
0.0315858
0.0316015
0.0316199
0.0316369
0.0316621
0.0317017
0.031746
0.0317878
0.0318131
0.0318448
0.0318913
0.0319316
0.0319776
0.0320178
0.032066
0.0321122
0.0321495
0.0321906
0.0322245
0.0322619
0.0323023
0.0323468
0.0323861
0.0324259
0.0324645
0.0325014
0.0325362
0.0325688
0.0325993
0.0326287
0.0326574
0.0326853
0.0327124
0.0327383
0.0327632
0.0327866
0.0328092
0.0328301
0.0328523
0.0320245
0.0320211
0.0320188
0.0320169
0.0320163
0.0320171
0.0320185
0.0320225
0.0320283
0.0320363
0.0320463
0.0320583
0.032073
0.0320892
0.0321083
0.0321296
0.0321526
0.0321758
0.0321986
0.0322194
0.0322375
0.0322553
0.0322753
0.0322953
0.0323275
0.0323712
0.0324183
0.0324628
0.032494
0.032531
0.0325821
0.0326279
0.0326782
0.0327248
0.032778
0.0328326
0.0328794
0.0329284
0.0329716
0.0330158
0.0330615
0.0331115
0.0331593
0.0332066
0.0332532
0.0332987
0.0333425
0.0333842
0.0334237
0.0334614
0.0334976
0.0335323
0.0335657
0.0335976
0.0336283
0.0336574
0.0336855
0.0337117
0.0337395
0.0328049
0.0327998
0.0327961
0.0327927
0.0327907
0.0327901
0.0327917
0.0327944
0.0328003
0.0328086
0.0328191
0.0328318
0.0328473
0.0328646
0.0328841
0.0329053
0.0329279
0.0329512
0.0329738
0.0329948
0.0330144
0.0330345
0.033057
0.0330818
0.0331204
0.0331686
0.0332191
0.0332674
0.0333055
0.0333487
0.0334051
0.0334576
0.0335135
0.0335674
0.0336267
0.0336898
0.0337473
0.0338057
0.0338598
0.0339134
0.0339669
0.0340236
0.0340802
0.0341362
0.0341917
0.0342463
0.0342997
0.0343512
0.0344006
0.0344479
0.0344932
0.0345365
0.034578
0.0346175
0.0346553
0.0346911
0.0347257
0.034758
0.0347922
0.0337315
0.0337249
0.0337204
0.0337161
0.0337132
0.0337122
0.0337137
0.0337166
0.0337228
0.0337315
0.0337425
0.0337559
0.0337715
0.0337892
0.0338089
0.0338303
0.0338531
0.0338764
0.0338992
0.033921
0.0339427
0.0339658
0.033992
0.0340226
0.0340676
0.0341206
0.0341754
0.0342288
0.0342748
0.0343254
0.0343882
0.0344486
0.0345118
0.034574
0.0346409
0.0347131
0.0347821
0.0348518
0.0349184
0.0349837
0.035048
0.0351139
0.0351804
0.0352466
0.0353124
0.0353773
0.0354411
0.0355033
0.0355636
0.0356217
0.0356776
0.0357311
0.0357823
0.0358311
0.0358777
0.0359219
0.0359643
0.0360041
0.0360458
0.0348399
0.0348323
0.0348272
0.0348223
0.0348191
0.0348179
0.0348196
0.0348227
0.0348288
0.0348376
0.0348489
0.0348626
0.0348784
0.0348964
0.0349164
0.0349381
0.034961
0.0349844
0.0350078
0.0350313
0.0350557
0.0350827
0.0351138
0.0351515
0.0352026
0.035261
0.0353211
0.0353809
0.0354363
0.0354957
0.0355662
0.035636
0.0357082
0.0357805
0.0358567
0.0359391
0.0360208
0.0361034
0.0361843
0.0362639
0.036342
0.0364203
0.036499
0.0365775
0.0366555
0.0367326
0.0368086
0.0368831
0.0369557
0.037026
0.037094
0.0371593
0.037222
0.0372819
0.0373391
0.0373935
0.0374456
0.0374945
0.0375456
0.0361752
0.0361666
0.036161
0.0361556
0.036152
0.0361505
0.036152
0.0361551
0.0361608
0.0361695
0.0361807
0.0361944
0.0362103
0.0362284
0.0362485
0.0362703
0.0362934
0.0363174
0.036342
0.0363679
0.0363959
0.0364278
0.0364652
0.0365107
0.0365679
0.0366324
0.0366995
0.0367674
0.0368335
0.0369033
0.0369834
0.0370644
0.0371478
0.0372321
0.03732
0.0374143
0.0375103
0.0376079
0.0377051
0.0378014
0.0378965
0.0379909
0.0380851
0.0381789
0.038272
0.0383641
0.0384549
0.038544
0.0386311
0.0387159
0.0387981
0.0388774
0.0389537
0.0390269
0.039097
0.0391637
0.0392277
0.039288
0.0393506
0.0377955
0.0377855
0.0377791
0.0377728
0.0377683
0.037766
0.0377666
0.0377691
0.0377742
0.0377822
0.037793
0.0378062
0.0378218
0.0378396
0.0378595
0.0378813
0.0379047
0.0379297
0.0379563
0.0379854
0.0380181
0.0380558
0.0381004
0.0381541
0.0382186
0.0382905
0.0383659
0.0384437
0.0385224
0.0386047
0.0386966
0.0387909
0.038888
0.038987
0.0390896
0.0391985
0.0393109
0.0394261
0.0395422
0.0396584
0.0397737
0.0398883
0.0400022
0.0401154
0.0402276
0.0403385
0.0404478
0.0405551
0.0406602
0.0407627
0.0408623
0.0409587
0.0410517
0.0411411
0.041227
0.041309
0.0413879
0.0414626
0.0415396
0.0397781
0.0397658
0.0397578
0.0397496
0.0397433
0.039739
0.0397375
0.0397392
0.0397431
0.0397494
0.0397586
0.0397707
0.0397852
0.0398021
0.0398214
0.039843
0.0398669
0.0398933
0.0399226
0.0399556
0.0399937
0.0400383
0.040091
0.0401535
0.0402265
0.0403073
0.0403928
0.0404826
0.0405761
0.0406734
0.0407798
0.0408904
0.0410045
0.0411216
0.0412426
0.0413699
0.0415021
0.0416383
0.0417768
0.0419166
0.0420565
0.0421959
0.0423347
0.0424726
0.0426092
0.0427442
0.0428774
0.0430082
0.0431363
0.0432615
0.0433833
0.0435015
0.0436159
0.0437262
0.0438324
0.0439343
0.0440324
0.0441261
0.0442219
0.0422318
0.0422155
0.0422039
0.0421922
0.0421822
0.0421742
0.0421688
0.0421666
0.0421679
0.0421717
0.0421778
0.0421868
0.0421989
0.0422139
0.0422317
0.0422526
0.0422767
0.0423045
0.0423366
0.0423741
0.0424182
0.0424703
0.0425318
0.0426039
0.0426867
0.0427781
0.0428757
0.0429803
0.0430915
0.043207
0.0433316
0.0434623
0.0435976
0.0437373
0.0438817
0.0440327
0.0441898
0.0443522
0.0445184
0.0446872
0.0448574
0.0450281
0.0451986
0.0453684
0.0455369
0.0457038
0.0458685
0.0460307
0.0461898
0.0463455
0.0464974
0.0466452
0.0467886
0.0469275
0.0470616
0.0471908
0.0473155
0.0474355
0.0475574
0.045323
0.0452985
0.0452793
0.04526
0.0452421
0.0452263
0.045213
0.0452028
0.0451959
0.0451928
0.0451938
0.045198
0.0452046
0.0452147
0.0452288
0.0452471
0.0452701
0.0452983
0.0453326
0.0453741
0.0454241
0.0454838
0.0455544
0.0456367
0.0457307
0.0458347
0.045947
0.0460698
0.0462023
0.0463403
0.0464881
0.0466442
0.0468067
0.0469754
0.0471503
0.0473327
0.0475226
0.0477193
0.0479216
0.0481283
0.048338
0.0485497
0.0487623
0.0489751
0.0491872
0.049398
0.0496069
0.0498132
0.0500164
0.0502159
0.0504113
0.050602
0.0507879
0.0509685
0.0511436
0.0513133
0.0514776
0.0516368
0.0517973
0.0493317
0.0492891
0.0492524
0.0492154
0.0491797
0.0491458
0.0491145
0.0490863
0.0490618
0.0490415
0.0490257
0.0490146
0.0490089
0.0490095
0.0490148
0.0490249
0.0490415
0.0490659
0.0490991
0.049142
0.0491958
0.0492618
0.0493409
0.0494336
0.0495398
0.0496584
0.0497888
0.0499343
0.0500933
0.0502601
0.0504385
0.0506281
0.0508272
0.0510351
0.0512518
0.0514782
0.0517144
0.0519598
0.0522134
0.0524741
0.0527405
0.0530113
0.0532852
0.0535611
0.0538378
0.0541143
0.0543896
0.0546627
0.0549328
0.0551989
0.0554604
0.0557165
0.0559666
0.0562105
0.0564475
0.0566775
0.0569005
0.0571177
0.0573339
0.0547543
0.0546744
0.0546013
0.0545289
0.0544566
0.0543852
0.0543155
0.0542486
0.0541853
0.0541265
0.054073
0.0540256
0.0539853
0.0539529
0.0539288
0.0539143
0.0539115
0.0539189
0.0539375
0.0539698
0.0540178
0.0540822
0.0541638
0.0542631
0.0543802
0.0545146
0.0546666
0.0548412
0.0550352
0.0552419
0.0554644
0.0557034
0.0559579
0.056226
0.0565079