/*--------------------------------*- C++ -*----------------------------------*\
| =========                 |                                                 |
| \\      /  F ield         | OpenFOAM: The Open Source CFD Toolbox           |
|  \\    /   O peration     | Version:  2312                                  |
|   \\  /    A nd           | Website:  www.openfoam.com                      |
|    \\/     M anipulation  |                                                 |
\*---------------------------------------------------------------------------*/
FoamFile
{
    version     2.0;
    format      ascii;
    arch        "LSB;label=32;scalar=64";
    class       volScalarField;
    location    "1100";
    object      p;
}
// * * * * * * * * * * * * * * * * * * * * * * * * * * * * * * * * * * * * * //

dimensions      [0 2 -2 0 0 0 0];

internalField   nonuniform List<scalar> 
76025
(
7.67543e-05
6.76022e-05
5.83231e-05
4.90071e-05
3.96906e-05
3.03865e-05
2.05895e-05
1.11262e-05
1.45754e-06
-8.06348e-06
-1.76888e-05
-2.73795e-05
-3.71213e-05
-4.68397e-05
-5.65601e-05
-6.64429e-05
-7.59952e-05
-8.57699e-05
-9.54111e-05
-0.000105027
-0.000114461
-0.000123994
-0.000133394
-0.000142597
-0.000151799
-0.000160854
-0.000169835
-0.000178888
-0.000187485
-0.00019625
-0.000204285
-0.000212547
-0.000220692
-0.000228816
-0.000236545
-0.000244025
-0.00025102
-0.000258323
-0.00026544
-0.0002722
-0.000278406
-0.000284404
-0.000290711
-0.000296653
-0.000302053
-0.000307001
-0.00031196
-0.000316875
-0.000320947
-0.000324775
-0.000328439
-0.000331546
-0.000334477
-0.000337315
-0.000339711
-0.000340914
-0.000342654
-0.000343483
-0.000344058
-0.000344115
-0.000342922
-0.000342301
-0.000341138
-0.000339334
-0.000336618
-0.000332689
-0.000328935
-0.000325833
-0.000320632
7.41187e-05
6.45529e-05
5.49179e-05
4.51999e-05
3.53975e-05
2.55023e-05
1.55693e-05
5.61412e-06
-4.40684e-06
-1.44692e-05
-2.45893e-05
-3.47273e-05
-4.48629e-05
-5.50162e-05
-6.51303e-05
-7.52201e-05
-8.53068e-05
-9.53353e-05
-0.000105367
-0.000115272
-0.000125164
-0.000134945
-0.000144636
-0.000154205
-0.000163701
-0.000173112
-0.000182393
-0.000191467
-0.000200366
-0.000209163
-0.000217764
-0.000226384
-0.000234768
-0.000242886
-0.000250822
-0.000258517
-0.000266052
-0.000273419
-0.000280553
-0.000287484
-0.00029406
-0.000300439
-0.000306614
-0.000312472
-0.000318048
-0.000323339
-0.000328415
-0.000333196
-0.000337613
-0.000341772
-0.00034566
-0.000349166
-0.000352391
-0.000355346
-0.000357885
-0.000359956
-0.000361856
-0.000363228
-0.000364137
-0.000364579
-0.000364575
-0.000364515
-0.000363862
-0.000362651
-0.000360875
-0.000358622
-0.000356011
-0.000353233
-0.000349198
7.13673e-05
6.13703e-05
5.1278e-05
4.10876e-05
3.0815e-05
2.0503e-05
1.014e-05
-2.849e-07
-1.07621e-05
-2.12875e-05
-3.1836e-05
-4.2387e-05
-5.29393e-05
-6.34826e-05
-7.39954e-05
-8.4497e-05
-9.49644e-05
-0.000105389
-0.000115757
-0.000126059
-0.00013628
-0.0001464
-0.000156423
-0.000166337
-0.000176142
-0.000185827
-0.000195348
-0.000204707
-0.000213918
-0.000222981
-0.000231902
-0.000240659
-0.000249194
-0.000257521
-0.000265658
-0.000273588
-0.000281306
-0.000288804
-0.000296093
-0.000303156
-0.000309942
-0.000316474
-0.000322767
-0.000328822
-0.000334616
-0.00034013
-0.000345374
-0.000350356
-0.000355048
-0.000359443
-0.00036355
-0.000367348
-0.000370854
-0.000374074
-0.000376966
-0.000379491
-0.000381704
-0.000383552
-0.000385013
-0.000386115
-0.000386866
-0.000387356
-0.000387471
-0.000387187
-0.0003865
-0.000385435
-0.000384038
-0.000382499
-0.000379788
6.82617e-05
5.77886e-05
4.72112e-05
3.65407e-05
2.58048e-05
1.50168e-05
4.17121e-06
-6.72807e-06
-1.76671e-05
-2.86347e-05
-3.9619e-05
-5.061e-05
-6.1599e-05
-7.25754e-05
-8.35276e-05
-9.44485e-05
-0.000105324
-0.000116144
-0.000126897
-0.000137571
-0.000148153
-0.000158633
-0.000169003
-0.00017925
-0.000189366
-0.000199342
-0.000209164
-0.000218826
-0.000228322
-0.000237646
-0.000246791
-0.000255745
-0.0002645
-0.000273052
-0.000281395
-0.00028952
-0.000297422
-0.000305099
-0.000312552
-0.000319767
-0.000326728
-0.000333436
-0.000339903
-0.000346125
-0.000352088
-0.000357785
-0.000363221
-0.0003684
-0.000373308
-0.000377939
-0.000382299
-0.000386384
-0.000390193
-0.000393727
-0.000396971
-0.000399907
-0.000402549
-0.00040489
-0.000406916
-0.000408642
-0.000410087
-0.000411283
-0.00041221
-0.000412851
-0.000413215
-0.000413338
-0.000413255
-0.000413143
-0.000412174
6.46245e-05
5.36518e-05
4.25739e-05
3.14026e-05
2.01681e-05
8.88099e-06
-2.45883e-06
-1.38456e-05
-2.52674e-05
-3.67122e-05
-4.81699e-05
-5.96299e-05
-7.10804e-05
-8.25102e-05
-9.39073e-05
-0.00010526
-0.000116557
-0.000127787
-0.000138939
-0.000149999
-0.000160957
-0.000171801
-0.00018252
-0.000193104
-0.000203542
-0.000213826
-0.000223945
-0.00023389
-0.000243653
-0.000253228
-0.000262608
-0.000271788
-0.00028076
-0.000289516
-0.000298051
-0.00030636
-0.000314438
-0.000322284
-0.000329894
-0.000337263
-0.000344385
-0.000351258
-0.000357887
-0.000364271
-0.000370404
-0.000376286
-0.000381918
-0.0003873
-0.000392428
-0.000397303
-0.000401925
-0.000406295
-0.000410412
-0.000414279
-0.000417892
-0.000421244
-0.000424341
-0.000427188
-0.000429784
-0.000432143
-0.000434283
-0.000436228
-0.000437986
-0.000439565
-0.000440987
-0.000442309
-0.000443572
-0.000444969
-0.000445703
6.04233e-05
4.89224e-05
3.7316e-05
2.56153e-05
1.38535e-05
2.04359e-06
-9.8148e-06
-2.17161e-05
-3.36478e-05
-4.55971e-05
-5.75519e-05
-6.95006e-05
-8.14309e-05
-9.33305e-05
-0.000105187
-0.000116988
-0.000128722
-0.000140377
-0.000151939
-0.000163397
-0.000174739
-0.000185953
-0.000197027
-0.000207952
-0.000218716
-0.00022931
-0.000239724
-0.000249949
-0.000259978
-0.000269803
-0.00027942
-0.000288822
-0.000298001
-0.000306954
-0.000315676
-0.000324162
-0.000332409
-0.000340417
-0.000348181
-0.000355701
-0.000362975
-0.000370004
-0.000376789
-0.000383333
-0.000389635
-0.000395696
-0.000401517
-0.000407103
-0.000412452
-0.000417569
-0.000422454
-0.000427112
-0.000431546
-0.000435758
-0.000439752
-0.000443529
-0.000447096
-0.000450461
-0.000453633
-0.000456626
-0.000459463
-0.000462166
-0.00046476
-0.000467272
-0.000469745
-0.000472258
-0.000474877
-0.00047785
-0.000480485
5.55941e-05
4.35342e-05
3.13688e-05
1.9109e-05
6.79108e-06
-5.57062e-06
-1.79763e-05
-3.04197e-05
-4.28874e-05
-5.53651e-05
-6.784e-05
-8.02997e-05
-9.27312e-05
-0.000105121
-0.000117457
-0.000129725
-0.000141913
-0.000154006
-0.000165993
-0.00017786
-0.000189595
-0.000201186
-0.000212622
-0.00022389
-0.000234981
-0.000245886
-0.000256594
-0.000267097
-0.000277387
-0.000287458
-0.000297304
-0.00030692
-0.000316301
-0.000325443
-0.000334343
-0.000342997
-0.000351403
-0.000359561
-0.000367471
-0.000375133
-0.000382549
-0.000389722
-0.000396655
-0.000403351
-0.000409814
-0.000416047
-0.000422054
-0.00042784
-0.000433409
-0.000438766
-0.000443917
-0.000448866
-0.000453621
-0.000458187
-0.00046257
-0.000466778
-0.00047082
-0.000474708
-0.000478454
-0.000482076
-0.000485598
-0.000489048
-0.000492463
-0.000495886
-0.000499384
-0.000503059
-0.000507005
-0.000511515
-0.000515907
5.00411e-05
3.739e-05
2.46339e-05
1.17833e-05
-1.12205e-06
-1.40663e-05
-2.70492e-05
-4.00636e-05
-5.30951e-05
-6.61281e-05
-7.9149e-05
-9.21444e-05
-0.000105101
-0.000118003
-0.000130838
-0.000143592
-0.000156249
-0.000168797
-0.000181222
-0.00019351
-0.000205648
-0.000217623
-0.000229425
-0.00024104
-0.00025246
-0.000263673
-0.000274671
-0.000285446
-0.00029599
-0.000306298
-0.000316363
-0.000326183
-0.000335753
-0.000345072
-0.000354136
-0.000362943
-0.000371493
-0.000379788
-0.000387829
-0.00039562
-0.000403165
-0.000410469
-0.000417537
-0.000424375
-0.000430989
-0.000437386
-0.000443571
-0.000449552
-0.000455337
-0.000460933
-0.000466347
-0.000471588
-0.000476666
-0.000481587
-0.000486363
-0.000491003
-0.000495518
-0.000499921
-0.000504229
-0.00050846
-0.000512643
-0.000516811
-0.000521013
-0.000525308
-0.000529788
-0.000534575
-0.000539796
-0.000545761
-0.000551873
4.36569e-05
3.03798e-05
1.69987e-05
3.52332e-06
-1.00031e-05
-2.35626e-05
-3.71545e-05
-5.07709e-05
-6.43961e-05
-7.80133e-05
-9.16077e-05
-0.000105165
-0.00011867
-0.000132108
-0.000145463
-0.00015872
-0.000171865
-0.000184882
-0.000197757
-0.000210477
-0.000223026
-0.000235393
-0.000247564
-0.000259529
-0.000271277
-0.000282797
-0.00029408
-0.00030512
-0.000315909
-0.000326441
-0.000336714
-0.000346723
-0.000356467
-0.000365944
-0.000375154
-0.000384094
-0.000392769
-0.000401181
-0.000409334
-0.000417235
-0.000424891
-0.000432309
-0.000439496
-0.000446462
-0.000453214
-0.000459762
-0.000466115
-0.000472284
-0.000478277
-0.000484105
-0.000489778
-0.000495308
-0.000500704
-0.000505978
-0.00051114
-0.000516202
-0.000521176
-0.000526077
-0.000530921
-0.000535729
-0.000540535
-0.000545376
-0.000550316
-0.000555427
-0.000560829
-0.00056666
-0.000573099
-0.000580463
-0.000588165
3.63179e-05
2.23772e-05
8.33416e-06
-5.8025e-06
-1.99857e-05
-3.41953e-05
-4.84302e-05
-6.26815e-05
-7.6932e-05
-9.11638e-05
-0.000105361
-0.000119507
-0.000133586
-0.000147582
-0.000161479
-0.00017526
-0.000188909
-0.00020241
-0.000215749
-0.000228909
-0.000241878
-0.000254641
-0.000267185
-0.000279499
-0.000291572
-0.000303393
-0.000314955
-0.000326249
-0.000337271
-0.000348015
-0.000358477
-0.000368658
-0.000378555
-0.000388171
-0.000397502
-0.000406553
-0.000415327
-0.000423832
-0.000432074
-0.000440062
-0.000447806
-0.000455315
-0.000462601
-0.000469675
-0.000476548
-0.000483231
-0.000489738
-0.00049608
-0.000502269
-0.000508318
-0.00051424
-0.000520047
-0.000525751
-0.000531363
-0.000536895
-0.000542359
-0.000547766
-0.000553133
-0.000558475
-0.000563818
-0.000569197
-0.000574657
-0.000580271
-0.000586126
-0.000592363
-0.000599143
-0.000606706
-0.000615379
-0.000624736
2.78775e-05
1.32327e-05
-1.51224e-06
-1.63496e-05
-3.1228e-05
-4.61252e-05
-6.10393e-05
-7.59604e-05
-9.08699e-05
-0.000105748
-0.000120578
-0.000135342
-0.000150022
-0.000164601
-0.000179061
-0.000193386
-0.000207556
-0.000221557
-0.000235371
-0.000248982
-0.000262377
-0.000275539
-0.000288457
-0.000301117
-0.00031351
-0.000325624
-0.000337453
-0.000348988
-0.000360225
-0.000371161
-0.000381793
-0.000392122
-0.000402148
-0.000411873
-0.000421299
-0.00043043
-0.000439276
-0.000447843
-0.000456144
-0.00046419
-0.000471994
-0.000479568
-0.000486926
-0.000494082
-0.000501052
-0.000507848
-0.000514487
-0.000520983
-0.000527349
-0.000533601
-0.000539751
-0.000545814
-0.000551802
-0.000557726
-0.000563599
-0.000569432
-0.000575237
-0.000581028
-0.000586826
-0.000592655
-0.000598553
-0.000604569
-0.000610783
-0.00061729
-0.000624245
-0.000631831
-0.000640328
-0.000650094
-0.000660898
1.81612e-05
2.76833e-06
-1.27216e-05
-2.83022e-05
-4.39176e-05
-5.95428e-05
-7.5175e-05
-9.08034e-05
-0.000106408
-0.000121967
-0.000137461
-0.000152873
-0.000168182
-0.00018337
-0.000198417
-0.000213305
-0.000228015
-0.000242529
-0.00025683
-0.0002709
-0.000284725
-0.000298289
-0.000311578
-0.000324579
-0.000337282
-0.000349678
-0.000361757
-0.000373515
-0.000384946
-0.000396049
-0.000406823
-0.00041727
-0.000427394
-0.000437195
-0.00044668
-0.000455856
-0.000464735
-0.000473329
-0.000481652
-0.000489719
-0.000497546
-0.000505149
-0.000512545
-0.000519752
-0.000526786
-0.000533664
-0.000540405
-0.000547023
-0.000553536
-0.000559959
-0.000566305
-0.00057259
-0.000578825
-0.000585024
-0.000591198
-0.000597358
-0.000603518
-0.000609692
-0.0006159
-0.000622167
-0.00062853
-0.000635039
-0.000641772
-0.000648827
-0.000656357
-0.00066456
-0.00067371
-0.000684223
-0.000696377
6.96048e-06
-9.22809e-06
-2.55098e-05
-4.18801e-05
-5.82777e-05
-7.46746e-05
-9.10672e-05
-0.000107443
-0.000123781
-0.000140058
-0.000156252
-0.000172343
-0.000188311
-0.000204134
-0.000219792
-0.000235264
-0.000250531
-0.000265573
-0.000280372
-0.000294908
-0.000309166
-0.00032313
-0.000336786
-0.00035012
-0.000363121
-0.00037578
-0.00038809
-0.000400045
-0.000411642
-0.000422881
-0.000433762
-0.00044429
-0.00045447
-0.000464305
-0.000473803
-0.000482978
-0.000491844
-0.000500417
-0.000508715
-0.000516755
-0.000524559
-0.000532145
-0.000539533
-0.000546744
-0.000553797
-0.000560713
-0.00056751
-0.000574206
-0.00058082
-0.000587367
-0.000593863
-0.000600322
-0.000606758
-0.000613184
-0.000619614
-0.000626058
-0.000632532
-0.000639049
-0.000645628
-0.000652292
-0.000659074
-0.000666019
-0.000673192
-0.000680685
-0.000688636
-0.000697234
-0.000706736
-0.000717558
-0.000729727
-5.97961e-06
-2.30155e-05
-4.01399e-05
-5.73504e-05
-7.45794e-05
-9.17958e-05
-0.000108995
-0.000126163
-0.000143276
-0.000160309
-0.00017724
-0.000194045
-0.000210703
-0.00022719
-0.000243484
-0.000259563
-0.000275405
-0.000290989
-0.000306295
-0.000321304
-0.000335997
-0.000350358
-0.000364372
-0.000378025
-0.000391307
-0.000404208
-0.000416721
-0.000428841
-0.000440568
-0.000451901
-0.000462845
-0.000473405
-0.000483588
-0.000493399
-0.000502853
-0.000511966
-0.000520757
-0.000529246
-0.000537455
-0.000545405
-0.000553122
-0.000560626
-0.000567943
-0.000575096
-0.000582106
-0.000588997
-0.000595788
-0.000602501
-0.000609153
-0.000615764
-0.00062235
-0.000628927
-0.00063551
-0.000642114
-0.000648753
-0.000655442
-0.000662194
-0.000669025
-0.000675949
-0.000682985
-0.000690157
-0.000697493
-0.000705041
-0.000712862
-0.000721069
-0.000729829
-0.000739456
-0.000750494
-0.000763666
-2.09797e-05
-3.89195e-05
-5.69422e-05
-7.50484e-05
-9.31632e-05
-0.000111252
-0.000129307
-0.000147316
-0.00016525
-0.000183083
-0.000200791
-0.000218348
-0.00023573
-0.000252912
-0.000269869
-0.000286577
-0.000303013
-0.000319153
-0.000334975
-0.000350459
-0.000365586
-0.000380337
-0.000394696
-0.000408651
-0.000422188
-0.000435299
-0.000447977
-0.00046022
-0.000472026
-0.000483399
-0.000494344
-0.000504869
-0.000514982
-0.000524693
-0.000534024
-0.000542994
-0.000551626
-0.000559946
-0.000567979
-0.000575753
-0.000583295
-0.000590633
-0.000597793
-0.000604804
-0.000611689
-0.000618473
-0.000625181
-0.000631833
-0.000638451
-0.000645055
-0.000651663
-0.000658296
-0.00066497
-0.000671703
-0.000678511
-0.000685413
-0.000692421
-0.000699551
-0.000706813
-0.00071422
-0.000721776
-0.000729489
-0.000737367
-0.000745436
-0.000753762
-0.00076249
-0.000771891
-0.000782185
-0.000794104
-3.84623e-05
-5.7368e-05
-7.63503e-05
-9.5414e-05
-0.000114475
-0.000133493
-0.000152462
-0.000171364
-0.00019017
-0.000208851
-0.00022738
-0.00024573
-0.000263873
-0.000281781
-0.000299429
-0.000316788
-0.000333834
-0.000350541
-0.000366885
-0.000382843
-0.000398395
-0.00041352
-0.000428202
-0.000442426
-0.000456179
-0.000469454
-0.000482243
-0.000494544
-0.000506359
-0.000517692
-0.000528551
-0.000538946
-0.000548888
-0.000558397
-0.000567497
-0.000576213
-0.000584574
-0.000592611
-0.000600354
-0.000607837
-0.000615092
-0.000622152
-0.000629048
-0.000635811
-0.00064247
-0.000649052
-0.000655583
-0.000662088
-0.00066859
-0.000675112
-0.000681675
-0.000688302
-0.000695015
-0.000701834
-0.00070878
-0.000715873
-0.00072313
-0.000730564
-0.000738182
-0.000745985
-0.000753957
-0.000762073
-0.000770307
-0.000778659
-0.000787122
-0.000795734
-0.00080461
-0.000813664
-0.000823742
-5.90164e-05
-7.89579e-05
-9.8968e-05
-0.000119057
-0.00013913
-0.000159143
-0.000179084
-0.000198936
-0.000218668
-0.000238246
-0.00025764
-0.000276821
-0.000295758
-0.000314421
-0.00033278
-0.000350806
-0.00036847
-0.000385744
-0.000402601
-0.000419017
-0.000434968
-0.000450433
-0.000465393
-0.000479833
-0.00049374
-0.000507104
-0.00051992
-0.000532187
-0.000543908
-0.000555089
-0.000565741
-0.000575877
-0.000585516
-0.000594685
-0.000603412
-0.00061173
-0.000619673
-0.000627279
-0.000634586
-0.000641634
-0.000648462
-0.000655109
-0.000661612
-0.000668005
-0.000674323
-0.000680596
-0.000686852
-0.000693119
-0.000699423
-0.000705789
-0.000712242
-0.000718808
-0.000725513
-0.000732382
-0.000739443
-0.000746719
-0.00075423
-0.000761991
-0.000770006
-0.000778267
-0.000786743
-0.000795405
-0.000804186
-0.000813002
-0.000821701
-0.000830153
-0.000838356
-0.000846095
-0.000854609
-8.34955e-05
-0.000104544
-0.000125649
-0.000146828
-0.000167975
-0.000189037
-0.000210003
-0.000230852
-0.00025155
-0.00027206
-0.000292349
-0.000312384
-0.000332132
-0.000351559
-0.000370631
-0.000389316
-0.000407582
-0.000425399
-0.000442736
-0.000459566
-0.000475863
-0.000491604
-0.000506768
-0.000521339
-0.000535302
-0.000548649
-0.000561374
-0.000573478
-0.000584965
-0.000595845
-0.000606132
-0.000615845
-0.000625012
-0.000633664
-0.000641839
-0.000649575
-0.000656917
-0.000663912
-0.000670606
-0.000677048
-0.000683287
-0.000689368
-0.000695335
-0.000701228
-0.000707085
-0.000712939
-0.000718823
-0.000724765
-0.000730793
-0.000736934
-0.000743217
-0.000749672
-0.000756328
-0.000763217
-0.000770373
-0.000777827
-0.000785605
-0.00079373
-0.000802218
-0.00081108
-0.000820287
-0.000829786
-0.000839424
-0.000848991
-0.000858182
-0.00086658
-0.000873841
-0.000879206
-0.000883722
-0.00011293
-0.000135129
-0.000157367
-0.000179673
-0.000201924
-0.000224063
-0.000246075
-0.000267937
-0.000289611
-0.000311058
-0.000332241
-0.000353123
-0.000373666
-0.000393835
-0.000413591
-0.000432898
-0.000451722
-0.000470028
-0.000487782
-0.000504953
-0.000521514
-0.000537437
-0.000552701
-0.000567286
-0.000581179
-0.00059437
-0.000606854
-0.000618632
-0.000629713
-0.000640109
-0.00064984
-0.000658932
-0.00066742
-0.000675345
-0.000682753
-0.000689694
-0.000696223
-0.000702399
-0.000708281
-0.00071393
-0.000719403
-0.000724754
-0.000730037
-0.000735296
-0.000740573
-0.000745905
-0.000751324
-0.000756861
-0.000762543
-0.000768397
-0.000774455
-0.000780749
-0.000787317
-0.000794193
-0.000801419
-0.000809043
-0.000817113
-0.000825685
-0.000834806
-0.000844501
-0.000854749
-0.000865469
-0.000876464
-0.00088738
-0.000897575
-0.000905997
-0.00091149
-0.000912375
-0.000910161
-0.00014795
-0.000171293
-0.000194661
-0.000218089
-0.00024144
-0.000264651
-0.000287702
-0.000310566
-0.000333202
-0.000355567
-0.000377619
-0.000399318
-0.000420622
-0.000441491
-0.000461885
-0.000481763
-0.000501084
-0.000519811
-0.000537906
-0.000555335
-0.000572064
-0.000588065
-0.000603312
-0.000617785
-0.000631468
-0.000644351
-0.00065643
-0.000667707
-0.000678194
-0.000687908
-0.000696873
-0.000705125
-0.000712708
-0.000719673
-0.000726079
-0.00073199
-0.000737474
-0.000742606
-0.000747461
-0.000752113
-0.000756632
-0.000761085
-0.000765532
-0.000770025
-0.000774609
-0.00077932
-0.000784192
-0.00078925
-0.00079452
-0.000800028
-0.000805804
-0.000811887
-0.000818318
-0.000825144
-0.000832426
-0.000840237
-0.000848662
-0.000857791
-0.000867714
-0.000878506
-0.00089022
-0.000902773
-0.000915862
-0.000928767
-0.000940175
-0.000948121
-0.000950507
-0.000945014
-0.000934201
-0.000188087
-0.000212569
-0.00023706
-0.0002616
-0.000286044
-0.00031032
-0.000334404
-0.000358264
-0.000381856
-0.000405133
-0.000428048
-0.000450555
-0.00047261
-0.000494167
-0.000515181
-0.000535607
-0.000555399
-0.000574512
-0.000592905
-0.000610537
-0.000627371
-0.000643374
-0.000658516
-0.000672775
-0.000686132
-0.000698576
-0.000710102
-0.000720715
-0.000730427
-0.000739261
-0.000747248
-0.000754433
-0.000760871
-0.000766627
-0.000771777
-0.000776401
-0.000780586
-0.000784424
-0.000788013
-0.000791446
-0.000794808
-0.000798181
-0.000801633
-0.000805226
-0.000809004
-0.000813004
-0.000817253
-0.000821769
-0.000826567
-0.000831672
-0.000837119
-0.000842949
-0.000849212
-0.000855968
-0.000863298
-0.000871308
-0.000880132
-0.000889938
-0.000900905
-0.000913178
-0.000926806
-0.000941577
-0.000956869
-0.000971438
-0.000983243
-0.000989632
-0.000988193
-0.00097701
-0.000958657
-0.000231678
-0.00025738
-0.000283064
-0.000308785
-0.000334389
-0.000359798
-0.000384983
-0.000409909
-0.000434527
-0.000458784
-0.000482629
-0.000506012
-0.000528882
-0.000551187
-0.000572874
-0.000593892
-0.000614187
-0.000633711
-0.000652416
-0.000670256
-0.000687186
-0.000703169
-0.000718169
-0.000732159
-0.000745118
-0.00075703
-0.000767891
-0.000777703
-0.000786483
-0.000794257
-0.000801064
-0.000806959
-0.00081201
-0.000816295
-0.000819909
-0.000822956
-0.000825551
-0.000827809
-0.000829852
-0.0008318
-0.000833765
-0.000835847
-0.00083813
-0.000840681
-0.000843546
-0.000846756
-0.000850323
-0.000854253
-0.000858549
-0.000863227
-0.000868317
-0.000873862
-0.000879931
-0.000886609
-0.000894017
-0.000902309
-0.000911672
-0.000922326
-0.00093442
-0.000948003
-0.000962934
-0.000978817
-0.000994727
-0.00100903
-0.00101956
-0.00102394
-0.00101986
-0.00100594
-0.000984345
-0.000277291
-0.000304367
-0.000331404
-0.000358463
-0.000385386
-0.000412085
-0.000438528
-0.000464675
-0.000490472
-0.000515861
-0.000540786
-0.00056519
-0.000589015
-0.000612201
-0.000634688
-0.000656416
-0.000677325
-0.00069736
-0.000716464
-0.000734585
-0.000751672
-0.000767679
-0.000782563
-0.000796288
-0.000808823
-0.000820149
-0.000830255
-0.000839145
-0.000846834
-0.000853353
-0.00085875
-0.00086309
-0.000866455
-0.000868943
-0.000870672
-0.000871776
-0.000872405
-0.000872715
-0.00087286
-0.000873001
-0.000873285
-0.000873842
-0.000874778
-0.000876165
-0.000878044
-0.000880424
-0.000883285
-0.00088661
-0.000890383
-0.000894615
-0.000899352
-0.000904672
-0.000910685
-0.000917493
-0.000925208
-0.000933919
-0.000943657
-0.000954438
-0.000966293
-0.000979236
-0.000993027
-0.00100708
-0.00102046
-0.001032
-0.00104054
-0.00104407
-0.00104011
-0.0010281
-0.00101147
-0.000322502
-0.000351272
-0.000379949
-0.000408622
-0.000437133
-0.000465389
-0.000493352
-0.000520977
-0.000548205
-0.000574972
-0.000601217
-0.000626875
-0.000651882
-0.00067617
-0.000699672
-0.00072232
-0.000744046
-0.000764782
-0.000784465
-0.000803031
-0.00082042
-0.000836575
-0.000851443
-0.000864975
-0.000877127
-0.000887872
-0.000897194
-0.000905094
-0.000911585
-0.0009167
-0.000920491
-0.00092303
-0.000924417
-0.000924773
-0.000924247
-0.000923009
-0.00092125
-0.000919179
-0.000917007
-0.000914943
-0.000913184
-0.000911905
-0.000911241
-0.000911281
-0.000912064
-0.000913583
-0.000915796
-0.000918658
-0.000922139
-0.000926238
-0.000931005
-0.000936481
-0.000942685
-0.000949559
-0.00095709
-0.000965255
-0.000973915
-0.000982638
-0.000991254
-0.00100022
-0.00100963
-0.00101873
-0.00102773
-0.00103697
-0.00104539
-0.00104978
-0.00104783
-0.00104106
-0.00103423
-0.000369865
-0.000400475
-0.000431065
-0.00046163
-0.000492012
-0.000522119
-0.000551905
-0.000581319
-0.000610293
-0.000638758
-0.000666641
-0.00069387
-0.000720371
-0.000746069
-0.000770885
-0.000794742
-0.000817562
-0.000839265
-0.000859776
-0.000879017
-0.000896914
-0.000913397
-0.000928392
-0.000941832
-0.000953655
-0.000963809
-0.000972259
-0.00097899
-0.000984014
-0.000987366
-0.000989108
-0.000989325
-0.000988136
-0.000985692
-0.000982179
-0.000977816
-0.000972855
-0.000967572
-0.000962262
-0.000957225
-0.000952751
-0.000949103
-0.000946495
-0.000945069
-0.000944879
-0.00094589
-0.000947982
-0.000950993
-0.000954777
-0.000959231
-0.000964299
-0.000969868
-0.000975648
-0.000981178
-0.000986244
-0.000991282
-0.000996758
-0.00100164
-0.00100456
-0.00100697
-0.00101094
-0.00101684
-0.00102519
-0.00103449
-0.00104131
-0.00104403
-0.00104384
-0.00104326
-0.00104614
-0.000407892
-0.000441211
-0.000474202
-0.000507098
-0.000539778
-0.000572139
-0.00060413
-0.000635697
-0.000666771
-0.000697275
-0.00072713
-0.000756255
-0.000784569
-0.000811986
-0.000838418
-0.000863776
-0.00088797
-0.000910911
-0.000932511
-0.000952681
-0.000971335
-0.000988389
-0.00100375
-0.00101735
-0.00102909
-0.00103893
-0.00104681
-0.00105269
-0.00105656
-0.00105842
-0.00105833
-0.00105635
-0.00105261
-0.00104727
-0.00104058
-0.0010328
-0.00102428
-0.00101542
-0.00100665
-0.000998425
-0.000991215
-0.000985432
-0.000981389
-0.000979247
-0.000978952
-0.00098021
-0.000982523
-0.000985331
-0.000988242
-0.000991257
-0.00099474
-0.000999011
-0.00100364
-0.00100703
-0.0010077
-0.00100671
-0.00100663
-0.00100758
-0.00100696
-0.00100661
-0.00101035
-0.00101706
-0.00102311
-0.00102746
-0.00103017
-0.00103173
-0.00103353
-0.00103826
-0.00104773
-0.00047032
-0.000505844
-0.000541614
-0.00057728
-0.000612718
-0.000647838
-0.000682583
-0.000716888
-0.000750671
-0.000783838
-0.000816298
-0.000847957
-0.000878718
-0.000908482
-0.000937146
-0.000964605
-0.000990752
-0.00101548
-0.00103869
-0.00106027
-0.0010801
-0.00109805
-0.00111391
-0.00112747
-0.00113861
-0.00114729
-0.00115349
-0.0011572
-0.00115839
-0.00115708
-0.00115331
-0.00114716
-0.00113878
-0.0011284
-0.00111629
-0.00110284
-0.0010885
-0.00107381
-0.00105938
-0.00104587
-0.00103396
-0.00102428
-0.00101733
-0.00101341
-0.00101239
-0.00101371
-0.00101624
-0.00101851
-0.00101922
-0.00101808
-0.00101603
-0.00101486
-0.00101575
-0.00101717
-0.00101601
-0.0010121
-0.00100885
-0.00100904
-0.00101105
-0.00101253
-0.00101357
-0.00101527
-0.00101738
-0.00101898
-0.00101945
-0.00101952
-0.00102208
-0.0010297
-0.00104181
-0.000494227
-0.000532803
-0.000570535
-0.000608365
-0.000646103
-0.000683475
-0.000720402
-0.000756842
-0.000792715
-0.000827922
-0.00086236
-0.000895931
-0.00092853
-0.000960048
-0.00099037
-0.00101938
-0.00104695
-0.00107297
-0.00109735
-0.00112
-0.00114094
-0.00116023
-0.00117775
-0.00119302
-0.00120558
-0.00121525
-0.00122202
-0.00122588
-0.00122677
-0.00122459
-0.0012193
-0.0012109
-0.00119946
-0.00118512
-0.00116816
-0.00114897
-0.00112812
-0.0011064
-0.00108477
-0.0010644
-0.00104656
-0.00103251
-0.00102327
-0.00101938
-0.00102062
-0.00102574
-0.00103243
-0.00103766
-0.00103882
-0.00103498
-0.0010273
-0.00101936
-0.00101525
-0.00101579
-0.00101813
-0.00101921
-0.00101805
-0.00101593
-0.00101425
-0.00101337
-0.00101325
-0.00101338
-0.0010131
-0.00101188
-0.0010099
-0.00100877
-0.0010113
-0.00101913
-0.00103118
-0.000630268
-0.000671934
-0.000714074
-0.000755785
-0.000796928
-0.000837606
-0.000877843
-0.000917554
-0.000956618
-0.000994917
-0.00103234
-0.00106876
-0.00110406
-0.00113812
-0.00117077
-0.00120188
-0.00123126
-0.00125872
-0.00128404
-0.00130695
-0.00132712
-0.00134419
-0.00135808
-0.00136912
-0.00137757
-0.00138325
-0.00138577
-0.00138476
-0.00137997
-0.00137123
-0.00135846
-0.00134165
-0.00132091
-0.00129644
-0.00126862
-0.00123802
-0.00120541
-0.0011718
-0.00113843
-0.0011067
-0.00107813
-0.00105417
-0.00103608
-0.00102464
-0.00101994
-0.00102114
-0.00102644
-0.00103302
-0.00103788
-0.00103931
-0.00103703
-0.0010321
-0.00102643
-0.00102217
-0.00102
-0.00101867
-0.00101752
-0.0010165
-0.00101556
-0.00101454
-0.00101343
-0.00101215
-0.00101039
-0.00100771
-0.00100442
-0.0010024
-0.00100385
-0.00100966
-0.00102025
0.000250512
0.000255716
0.000261066
0.000266742
0.000272764
0.000279128
0.000285878
0.00029283
0.000300001
0.000307522
0.000315327
0.000323367
0.000331375
0.000340085
0.000347978
0.00035636
0.000363844
0.000371713
0.000378989
0.000385936
0.000393049
0.000398269
0.000403084
0.000406766
0.000409509
0.000411208
0.000411253
0.000410118
0.000407844
0.000404055
0.000398524
0.000391761
0.000383899
0.000375044
0.00036455
0.000353231
0.000341148
0.000328215
0.00031477
0.000301041
0.000286864
0.000272477
0.00025851
0.000244869
0.000230447
0.000217109
0.000203502
0.000190711
0.000178347
0.000166454
0.000155202
0.000144512
0.000134448
0.000124826
0.000115944
0.000107122
9.91012e-05
9.16251e-05
8.47148e-05
0.000254184
0.000259528
0.000265219
0.00027122
0.000277545
0.000284204
0.000291201
0.00029849
0.000306075
0.000313962
0.000322111
0.000330483
0.000338983
0.000347662
0.000356332
0.00036491
0.000373323
0.00038149
0.000389354
0.00039662
0.000403504
0.000409512
0.000414598
0.000418619
0.000421533
0.000423217
0.000423548
0.000422389
0.000420003
0.000416058
0.000410388
0.000403459
0.000395304
0.000385821
0.000375061
0.00036326
0.000350613
0.000337205
0.000323205
0.000308757
0.000293978
0.000279136
0.000264362
0.000249551
0.000234955
0.000220706
0.000206836
0.000193463
0.000180545
0.000168128
0.000156309
0.000145099
0.000134405
0.000124328
0.000114789
0.000105867
9.7522e-05
8.97258e-05
8.24235e-05
0.000257982
0.000263569
0.000269499
0.000275781
0.000282412
0.000289393
0.000296712
0.000304359
0.000312332
0.000320616
0.000329164
0.000337927
0.000346864
0.000355929
0.000365029
0.000374143
0.000383105
0.000391791
0.000400065
0.000407804
0.000414949
0.000421336
0.000426794
0.000431126
0.000434279
0.000436106
0.000436537
0.000435466
0.000432942
0.00042885
0.000423088
0.000415907
0.000407311
0.00039736
0.00038614
0.000373845
0.00036061
0.000346621
0.000331986
0.000316894
0.0003015
0.000285909
0.000270287
0.000254822
0.000239579
0.000224707
0.000210225
0.000196193
0.000182666
0.000169688
0.000157317
0.000145543
0.000134373
0.000123805
0.000113881
0.000104577
9.58512e-05
8.76855e-05
8.00442e-05
0.00026166
0.000267508
0.000273716
0.000280289
0.000287232
0.000294546
0.000302226
0.00031026
0.00031864
0.000327343
0.000336334
0.000345568
0.000354999
0.000364561
0.000374158
0.000383749
0.000393178
0.000402353
0.000411112
0.000419363
0.000426961
0.000433707
0.000439503
0.000444149
0.000447557
0.000449579
0.000450115
0.000449088
0.000446477
0.000442245
0.000436314
0.000428839
0.000419843
0.000409455
0.000397735
0.000384881
0.000371033
0.00035637
0.000341039
0.000325231
0.000309101
0.000292774
0.000276433
0.000260263
0.000244304
0.000228701
0.000213509
0.000198797
0.000184634
0.000171061
0.000158113
0.000145802
0.000134139
0.000123121
0.000112747
0.000103002
9.38652e-05
8.53191e-05
7.73369e-05
0.000265198
0.000271322
0.000277827
0.000284717
0.000291995
0.000299666
0.000307725
0.000316166
0.000324973
0.000334123
0.000343583
0.00035331
0.000363251
0.000373333
0.000383471
0.000393578
0.000403532
0.000413226
0.000422512
0.000431267
0.000439331
0.000446504
0.000452669
0.000457646
0.000461317
0.000463539
0.0004642
0.000463208
0.000460536
0.000456159
0.000450017
0.000442236
0.000432854
0.000421999
0.000409754
0.000396301
0.000381801
0.000366431
0.000350362
0.000333785
0.00031687
0.000299778
0.000282676
0.000265714
0.000248988
0.000232616
0.000216688
0.000201276
0.000186442
0.000172229
0.000158669
0.000145779
0.000133569
0.000122036
0.000111174
0.000100971
9.1412e-05
8.24733e-05
7.41274e-05
0.000268596
0.000275013
0.000281832
0.000289057
0.000296694
0.000304745
0.00031321
0.00032208