/*--------------------------------*- C++ -*----------------------------------*\
| =========                 |                                                 |
| \\      /  F ield         | OpenFOAM: The Open Source CFD Toolbox           |
|  \\    /   O peration     | Version:  2312                                  |
|   \\  /    A nd           | Website:  www.openfoam.com                      |
|    \\/     M anipulation  |                                                 |
\*---------------------------------------------------------------------------*/
FoamFile
{
    version     2.0;
    format      ascii;
    arch        "LSB;label=32;scalar=64";
    class       surfaceScalarField;
    location    "1100";
    object      phi;
}
// * * * * * * * * * * * * * * * * * * * * * * * * * * * * * * * * * * * * * //

dimensions      [0 3 -1 0 0 0 0];

oriented        oriented;

internalField   nonuniform List<scalar> 
116611
(
0.0012198
0.000414017
-0.00120388
-0.000429936
0.00123558
0.000409818
-0.000425595
0.00125119
0.000405295
-0.000420905
0.00126661
0.000400418
-0.000415837
0.00128178
0.00039516
-0.000410335
0.00129703
0.000389525
-0.00040477
0.00131175
0.000383491
-0.000398217
0.0013265
0.000377075
-0.000391821
0.00134086
0.000370223
-0.000384582
0.00135506
0.000362948
-0.000377144
0.00136895
0.000355198
-0.000369095
0.00138265
0.000346996
-0.000360695
0.00139608
0.000338345
-0.00035177
0.00140918
0.000329179
-0.000342282
0.00142208
0.000319561
-0.000332465
0.00143444
0.000309414
-0.000321768
0.00144668
0.000298724
-0.000310969
0.00145842
0.000287539
-0.000299281
0.00146984
0.000275711
-0.000287129
0.0014808
0.000263407
-0.000274369
0.00149147
0.000250427
-0.000261096
0.00150167
0.000236912
-0.000247112
0.00151137
0.000222753
-0.000232447
0.0015207
0.000208011
-0.000217344
0.00152954
0.000192629
-0.000201468
0.00153789
0.000176566
-0.000184922
0.00154579
0.000159815
-0.000167713
0.00155294
0.00014241
-0.000149557
0.00155982
0.000124356
-0.000131241
0.00156578
0.000105558
-0.000111514
0.00157152
8.61915e-05
-9.19368e-05
0.00157645
6.58776e-05
-7.08e-05
0.00158091
4.4899e-05
-4.93636e-05
0.00158461
2.32033e-05
-2.68986e-05
0.00158769
6.87248e-07
-3.76783e-06
0.00158995
-2.25046e-05
2.02425e-05
0.00159179
-4.64818e-05
4.46456e-05
0.0015929
-7.11926e-05
7.00749e-05
0.00159329
-9.66768e-05
9.62942e-05
0.00159275
-0.000123075
0.00012361
0.00159151
-0.000150118
0.000151353
0.00158974
-0.000177946
0.000179718
0.00158712
-0.000206544
0.000209166
0.00158359
-0.000235915
0.000239449
0.0015792
-0.000266059
0.000270444
0.00157412
-0.000296886
0.000301964
0.00156833
-0.000328453
0.000334247
0.00156141
-0.000360783
0.0003677
0.00155378
-0.000393748
0.000401384
0.0015453
-0.000427375
0.000435848
0.00153588
-0.000461673
0.000471094
0.00152576
-0.000496487
0.000506607
0.00151488
-0.000531871
0.000542754
0.00150306
-0.000567875
0.000579692
0.00149014
-0.000604386
0.000617306
0.00147688
-0.000641186
0.000654447
0.00146252
-0.000678562
0.000692926
0.00144756
-0.000716186
0.000731146
0.00143183
-0.000754055
0.000769785
0.00141529
-0.000792029
0.000808562
0.00139871
-0.000829866
0.000846448
0.00138126
-0.000868076
0.000885529
0.00136326
-0.000906061
0.00092406
0.00134467
-0.000943642
0.000962233
0.0013254
-0.000980452
0.000999718
0.00130575
-0.00101613
0.00103578
0.00128593
-0.0010501
0.00106992
0.00126489
-0.00108229
0.00110333
-0.00111226
0.00124259
0.00113456
0.00120497
0.000398188
-0.00118914
0.00122065
0.000394136
0.00123618
0.000389761
0.00125155
0.000385046
0.00126676
0.000379953
0.00128178
0.000374505
0.00129659
0.000368682
0.0013112
0.000362463
0.00132558
0.000355845
0.00133973
0.000348796
0.00135362
0.00034131
0.00136724
0.00033338
0.00138059
0.000324989
0.00139365
0.000316125
0.00140641
0.000306799
0.00141886
0.000296965
0.00143096
0.000286627
0.00144273
0.000275761
0.00145409
0.000264354
0.00146511
0.000252387
0.00147569
0.000239848
0.00148587
0.000226736
0.00149559
0.000213027
0.00150489
0.000198718
0.00151373
0.000183788
0.00152209
0.000168205
0.00152992
0.000151984
0.00153722
0.000135107
0.00154402
0.000117562
0.00155023
9.93468e-05
0.00155599
8.0431e-05
0.00156109
6.07803e-05
0.00156557
4.04189e-05
0.00156944
1.93306e-05
0.00157264
-2.50999e-06
0.00157521
-2.50771e-05
0.00157711
-4.83877e-05
0.00157835
-7.24279e-05
0.00157891
-9.72414e-05
0.00157869
-0.000122848
0.00157776
-0.000149196
0.0015761
-0.000176284
0.00157368
-0.000204117
0.00157048
-0.000232719
0.00156649
-0.000262068
0.00156173
-0.000292131
0.00155618
-0.0003229
0.00154979
-0.000354389
0.0015426
-0.00038656
0.0015346
-0.000419375
0.00152575
-0.000452829
0.00151614
-0.000486869
0.00150574
-0.000521477
0.00149453
-0.000556658
0.0014825
-0.000592364
0.00146981
-0.000628495
0.00145632
-0.00066507
0.00144215
-0.00070201
0.00142731
-0.000739222
0.00141191
-0.000776629
0.00139615
-0.000814099
0.00137973
-0.000851659
0.00136274
-0.00088907
0.00134513
-0.000926037
0.00132688
-0.000962203
0.00130789
-0.000997143
0.00128814
-0.00103035
0.00126731
-0.00106146
-0.00108968
0.00124473
0.00119088
0.000382476
-0.00117517
0.00120647
0.000378551
0.00122192
0.000374312
0.00123722
0.000369744
0.00125234
0.00036483
0.00126728
0.000359562
0.00128204
0.000353926
0.00129659
0.000347911
0.00131093
0.000341505
0.00132503
0.000334693
0.00133888
0.000327461
0.00135247
0.000319797
0.00136577
0.000311687
0.00137877
0.00030312
0.00139149
0.000294086
0.00140388
0.000284569
0.00141595
0.000274558
0.00142767
0.000264037
0.00143903
0.000252993
0.00145001
0.000241408
0.00146059
0.000229272
0.00147075
0.000216572
0.00148049
0.000203292
0.00148978
0.000189422
0.00149862
0.000174948
0.00150698
0.000159852
0.00151484
0.000144125
0.00152219
0.000127754
0.00152902
0.000110729
0.00153533
9.30397e-05
0.00154109
7.46706e-05
0.00154626
5.56067e-05
0.00155085
3.58359e-05
0.00155483
1.53498e-05
0.00155818
-5.86026e-06
0.00156089
-2.77895e-05
0.00156295
-5.0445e-05
0.00156435
-7.38335e-05
0.00156508
-9.79701e-05
0.00156509
-0.00012286
0.00156439
-0.000148494
0.00156297
-0.000174863
0.00156083
-0.000201971
0.00155793
-0.000229823
0.00155427
-0.000258407
0.00154984
-0.000287705
0.00154465
-0.000317708
0.00153868
-0.000348413
0.00153191
-0.000379797
0.00152437
-0.000411833
0.00151605
-0.000444506
0.00150697
-0.000477787
0.00149714
-0.000511653
0.00148657
-0.000546087
0.00147527
-0.000581059
0.00146328
-0.00061651
0.00145063
-0.000652414
0.00143734
-0.000688719
0.00142346
-0.000725343
0.00140903
-0.000762199
0.0013941
-0.000799169
0.00137858
-0.000836145
0.00136243
-0.000872913
0.00134555
-0.00090916
0.00132786
-0.000944514
0.00130926
-0.000978544
0.00128968
-0.00101077
0.00126897
-0.00104074
-0.00106764
0.00124693
0.00117752
0.000366842
-0.00116188
0.00119302
0.000363048
0.00120838
0.000358949
0.0012236
0.000354531
0.00123865
0.000349783
0.00125352
0.00034469
0.0012682
0.000339243
0.00128268
0.000333429
0.00129695
0.000327237
0.00131099
0.000320653
0.00132479
0.000313666
0.00133832
0.000306261
0.00135158
0.000298426
0.00136456
0.000290148
0.00137723
0.000281414
0.00138958
0.000272213
0.00140161
0.000262529
0.0014133
0.000252351
0.00142463
0.000241665
0.00143558
0.000230456
0.00144614
0.000218711
0.00145629
0.000206416
0.00146603
0.000193559
0.00147532
0.000180126
0.00148417
0.000166103
0.00149254
0.000151477
0.00150043
0.000136234
0.00150782
0.000120363
0.0015147
0.000103853
0.00152105
8.66903e-05
0.00152686
6.8864e-05
0.0015321
5.03596e-05
0.00153678
3.11648e-05
0.00154085
1.12704e-05
0.00154432
-9.32856e-06
0.00154717
-3.06335e-05
0.00154938
-5.26537e-05
0.00155094
-7.53965e-05
0.00155184
-9.88689e-05
0.00155205
-0.000123076
0.00155157
-0.000148015
0.00155039
-0.000173684
0.00154851
-0.000200082
0.00154589
-0.000227208
0.00154254
-0.000255057
0.00153845
-0.000283617
0.00153362
-0.00031288
0.00152805
-0.000342836
0.00152172
-0.000373471
0.00151465
-0.000404766
0.00150685
-0.000436703
0.00149833
-0.000469263
0.0014891
-0.000502425
0.00147918
-0.000536169
0.00146859
-0.000570468
0.00145736
-0.000605282
0.00144552
-0.000640572
0.00143308
-0.000676282
0.00142007
-0.000712332
0.00140649
-0.000748617
0.00139232
-0.000785
0.00137749
-0.000821312
0.00136189
-0.000857314
0.00134542
-0.000892691
0.00132798
-0.000927072
0.00130948
-0.000960048
0.00128989
-0.000991179
0.0012692
-0.00102004
-0.00104587
0.00124743
0.00116483
0.000351273
-0.00114926
0.00118027
0.000347613
0.00119556
0.000343657
0.0012107
0.000339392
0.00122568
0.000334807
0.00124048
0.00032989
0.00125509
0.000324631
0.0012695
0.000319017
0.0012837
0.000313038
0.00129767
0.000306681
0.0013114
0.000299933
0.00132488
0.000292782
0.00133809
0.000285216
0.00135102
0.000277221
0.00136365
0.000268786
0.00137597
0.000259896
0.00138796
0.000250539
0.00139961
0.000240701
0.0014109
0.000230369
0.00142183
0.00021953
0.00143237
0.00020817
0.00144251
0.000196276
0.00145223
0.000183835
0.00146153
0.000170832
0.00147038
0.000157254
0.00147876
0.000143089
0.00148668
0.000128323
0.0014941
0.000112943
0.00150101
9.69375e-05
0.00150741
8.02943e-05
0.00151327
6.30011e-05
0.00151859
4.5045e-05
0.00152334
2.64147e-05
0.00152751
7.09932e-06
0.00153108
-1.29037e-05
0.00153405
-3.36002e-05
0.00153639
-5.49998e-05
0.00153811
-7.71094e-05
0.00153917
-9.99349e-05
0.00153958
-0.000123481
0.00153931
-0.000147748
0.00153836
-0.000172736
0.00153673
-0.000198445
0.00153439
-0.000224873
0.00153135
-0.000252016
0.0015276
-0.000279867
0.00152314
-0.000308419
0.00151796
-0.000337663
0.00151208
-0.000367588
0.0015055
-0.00039818
0.00149822
-0.000429426
0.00149027
-0.000461309
0.00148165
-0.000493812
0.0014724
-0.000526915
0.00146252
-0.000560592
0.00145204
-0.000594803
0.00144097
-0.000629501
0.00142931
-0.000664618
0.00141704
-0.00070006
0.00140412
-0.000735699
0.00139049
-0.000771373
0.00137606
-0.000806878
0.0013607
-0.000841958
0.00134432
-0.000876305
0.00132682
-0.000909574
0.00130817
-0.000941402
0.0012884
-0.000971413
0.00126761
-0.000999251
-0.00102419
0.00124593
0.00115282
0.000335764
-0.00113731
0.0011682
0.000332236
0.00118343
0.000328424
0.00119851
0.000324314
0.00121342
0.000319894
0.00122816
0.000315154
0.0012427
0.000310083
0.00125705
0.00030467
0.00127119
0.000298903
0.0012851
0.000292771
0.00129877
0.000286261
0.00131219
0.000279362
0.00132534
0.000272062
0.00133822
0.000264347
0.0013508
0.000256205
0.00136307
0.000247623
0.00137502
0.000238589
0.00138663
0.000229087
0.0013979
0.000219107
0.00140879
0.000208634
0.00141931
0.000197654
0.00142943
0.000186155
0.00143914
0.000174123
0.00144843
0.000161545
0.00145727
0.000148406
0.00146567
0.000134695
0.0014736
0.000120397
0.00148104
0.000105499
0.00148799
8.99902e-05
0.00149442
7.38572e-05
0.00150034
5.7088e-05
0.00150571
3.96705e-05
0.00151053
2.15932e-05
0.00151479
2.84429e-06
0.00151846
-1.65765e-05
0.00152154
-3.66794e-05
0.00152401
-5.74736e-05
0.00152587
-7.89662e-05
0.0015271
-0.000101163
0.00152769
-0.000124069
0.00152763
-0.000147687
0.00152691
-0.000172017
0.00152552
-0.000197061
0.00152347
-0.000222818
0.00152074
-0.000249285
0.00151733
-0.000276459
0.00151324
-0.000304333
0.00150848
-0.000332903
0.00150305
-0.000362158
0.00149697
-0.000392091
0.00149023
-0.000422689
0.00148286
-0.00045394
0.00147487
-0.000485825
0.00146628
-0.000518322
0.00145709
-0.0005514
0.0014473
-0.000585014
0.0014369
-0.0006191
0.00142585
-0.000653572
0.00141411
-0.000688317
0.00140159
-0.000723184
0.00138821
-0.000757992
0.00137385
-0.00079252
0.00135841
-0.000826517
0.00134181
-0.0008597
0.001324
-0.00089177
0.00130503
-0.000922425
0.00128498
-0.000951371
0.00126407
-0.000978332
-0.00100271
0.00124258
0.00114148
0.000320308
-0.00112603
0.00115681
0.000316913
0.00117199
0.000313245
0.00118701
0.00030929
0.00120187
0.000305036
0.00121655
0.000300473
0.00123104
0.00029559
0.00124533
0.000290378
0.00125941
0.000284824
0.00127327
0.000278917
0.00128688
0.000272645
0.00130025
0.000265998
0.00131335
0.000258961
0.00132617
0.000251524
0.0013387
0.000243674
0.00135093
0.000235397
0.00136284
0.000226682
0.00137441
0.000217514
0.00138564
0.000207881
0.0013965
0.000197769
0.00140699
0.000187166
0.00141709
0.000176057
0.00142678
0.00016443
0.00143605
0.00015227
0.0014449
0.000139565
0.00145329
0.0001263
0.00146122
0.000112463
0.00146868
9.80399e-05
0.00147566
8.3019e-05
0.00148213
6.73874e-05
0.00148808
5.11331e-05
0.00149351
3.42436e-05
0.00149839
1.67074e-05
0.00150272
-1.48715e-06
0.00150649
-2.03403e-05
0.00150967
-3.9865e-05
0.00151227
-6.00703e-05
0.00151427
-8.09636e-05
0.00151566
-0.000102552
0.00151643
-0.000124839
0.00151657
-0.00014783
0.00151608
-0.000171528
0.00151495
-0.000195934
0.00151318
-0.000221049
0.00151077
-0.000246872
0.00150771
-0.000273402
0.00150402
-0.000300636
0.00149968
-0.000328569
0.00149472
-0.000357197
0.00148914
-0.000386511
0.00148295
-0.0004165
0.00147616
-0.00044715
0.00146878
-0.00047844
0.0014608
-0.00051034
0.0014522
-0.000542807
0.00144297
-0.000575782
0.00143305
-0.000609184
0.00142239
-0.000642907
0.00141089
-0.000676817
0.00139846
-0.000710752
0.00138499
-0.000744524
0.00137039
-0.000777918
0.00135457
-0.000810704
0.00133752
-0.000842643
0.00131924
-0.000873494
0.00129984
-0.000903024
0.00127949
-0.000931017
0.00125843
-0.000957275
-0.000981266
0.00123699
0.00113084
0.000304901
-0.00111543
0.00114611
0.000301639
0.00116125
0.000298115
0.00117622
0.000294314
0.00119103
0.000290226
0.00120566
0.00028584
0.00122011
0.000281147
0.00123435
0.000276135
0.00124838
0.000270794
0.00126218
0.000265113
0.00127575
0.000259079
0.00128906
0.000252682
0.00130212
0.000245909
0.00131489
0.000238749
0.00132738
0.000231189
0.00133956
0.000223216
0.00135142
0.000214817
0.00136296
0.00020598
0.00137414
0.000196692
0.00138497
0.000186939
0.00139543
0.000176708
0.00140551
0.000165985
0.00141518
0.000154757
0.00142444
0.000143011
0.00143327
0.000130733
0.00144166
0.000117909
0.0014496
0.000104526
0.00145707
9.05702e-05
0.00146406
7.60293e-05
0.00147055
6.08905e-05
0.00147654
4.51411e-05
0.00148202
2.87688e-05
0.00148697
1.17614e-05
0.00149137
-5.89086e-06
0.00149522
-2.41916e-05
0.00149851
-4.31541e-05
0.00150123
-6.27877e-05
0.00150336
-8.31005e-05
0.00150491
-0.0001041
0.00150586
-0.000125792
0.00150622
-0.000148181
0.00150596
-0.000171273
0.0015051
-0.00019507
0.00150362
-0.000219574
0.00150154
-0.000244787
0.00149884
-0.000270709
0.00149555
-0.000297339
0.00149165
-0.000324674
0.00148716
-0.000352709
0.00148209
-0.000381434
0.00147642
-0.000410836
0.00147017
-0.000440894
0.00146331
-0.000471578
0.00145581
-0.000502847
0.00144765
-0.000534641
0.00143875
-0.000566886
0.00142905
-0.000599482
0.00141845
-0.000632311
0.00140686
-0.000665228
0.00139418
-0.000698071
0.00138032
-0.00073066
0.00136521
-0.000762807
0.00134882
-0.000794317
0.00133118
-0.000825002
0.00131237
-0.000854681
0.00129253
-0.000883189
0.00127189
-0.00091038
0.00125074
-0.000936124
-0.00096004
0.00122952
0.00112092
0.00028954
-0.00110556
0.00113615
0.000286411
0.00115123
0.00028303
0.00116616
0.000279384
0.00118093
0.000275461
0.00119551
0.000271253
0.00120991
0.000266749
0.00122411
0.000261938
0.00123809
0.00025681
0.00125185
0.000251354
0.00126537
0.000245558
0.00127865
0.000239411
0.00129165
0.000232902
0.00130439
0.000226017
0.00131683
0.000218746
0.00132897
0.000211075
0.00134079
0.000202993
0.00135229
0.000194485
0.00136344
0.000185539
0.00137424
0.000176142
0.00138467
0.00016628
0.00139471
0.00015594
0.00140436
0.000145108
0.0014136
0.00013377
0.00142242
0.000121914
0.0014308
0.000109525
0.00143874
9.65892e-05
0.00144622
8.30936e-05
0.00145322
6.90247e-05
0.00145974
5.43695e-05
0.00146577
3.91151e-05
0.00147129
2.32487e-05
0.00147629
6.75756e-06
0.00148077
-1.03657e-05
0.00148471
-2.81296e-05
0.0014881
-4.65466e-05
0.00149094
-6.56269e-05
0.00149322
-8.53794e-05
0.00149493
-0.000105812
0.00149607
-0.000126933
0.00149664
-0.000148747
0.00149663
-0.000171262
0.00149604
-0.00019448
0.00149487
-0.000218406
0.00149312
-0.000243043
0.00149081
-0.000268391
0.00148791
-0.000294448
0.00148445
-0.000321211
0.00148041
-0.00034867
0.00147579
-0.000376812
0.00147057
-0.000405616
0.00146473
-0.00043505
0.00145822
-0.000465072
0.001451
-0.000495627
0.001443
-0.00052664
0.00143414
-0.000558023
0.00142432
-0.000589668
0.00141346
-0.000621449
0.00140146
-0.000653228
0.00138824
-0.000684854
0.00137376
-0.000716172
0.00135797
-0.000747024
0.00134092
-0.000777263
0.00132266
-0.000806748
0.00130334
-0.000835356
0.00128313
-0.000862982
0.00126229
-0.000889539
0.00124113
-0.00091496
-0.000938893
0.00121998
0.00111176
0.000274223
-0.00109644
0.00112694
0.000271225
0.00114199
0.000267988
0.00115687
0.000264496
0.0011716
0.000260739
0.00118614
0.000256708
0.0012005
0.000252392
0.00121465
0.000247782
0.0012286
0.000242867
0.00124231
0.000237636
0.00125579
0.000232078
0.00126902
0.000226181
0.00128199
0.000219934
0.00129468
0.000213326
0.00130709
0.000206343
0.00131919
0.000198974
0.00133097
0.000191206
0.00134243
0.000183025
0.00135355
0.00017442
0.00136432
0.000165377
0.00137472
0.000155881
0.00138474
0.000145921
0.00139436
0.000135481
0.00140358
0.000124548
0.00141239
0.000113109
0.00142077
0.000101149
0.0014287
8.86544e-05
0.00143618
7.56113e-05
0.0014432
6.20061e-05
0.00144975
4.78252e-05
0.00145581
3.30553e-05
0.00146137
1.76831e-05
0.00146643
1.69523e-06
0.00147098
-1.4914e-05
0.00147501
-3.21574e-05
0.00147851
-5.00474e-05
0.00148148
-6.85946e-05
0.00148391
-8.7809e-05
0.00148579
-0.0001077
0.00148714
-0.000128275
0.00148793
-0.000149542
0.00148818
-0.000171508
0.00148788
-0.000194178
0.00148702
-0.000217554
0.00148562
-0.00024164
0.00148366
-0.000266433
0.00148115
-0.00029193
0.00147806
-0.000318121
0.00147438
-0.00034499
0.00147008
-0.000372516
0.00146513
-0.000400666
0.00145948
-0.000429399
0.00145307
-0.000458659
0.00144582
-0.00048838
0.00143766
-0.000518479
0.00142849
-0.00054886
0.00141824
-0.000579416
0.00140682
-0.000610029
0.00139417
-0.000640574
0.00138024
-0.000670921
0.00136501
-0.000700946
0.00134851
-0.000730526
0.0013308
-0.000759555
0.00131199
-0.000787939
0.00129224
-0.000815604
0.00127176
-0.000842503
0.00125083
-0.000868603
0.00122979
-0.000893923
-0.000918158
0.00120905
0.00110342
0.000258946
-0.00108814
0.00111857
0.00025608
0.00113357
0.000252985
0.00114842
0.000249647
0.0011631
0.000246056
0.00117761
0.000242202
0.00119192
0.000238075
0.00120604
0.000233666
0.00121994
0.000228963
0.00123362
0.000223957
0.00124706
0.000218636
0.00126026
0.000212989
0.00127319
0.000207005
0.00128584
0.000200672
0.00129821
0.000193977
0.00131027
0.000186908
0.00132202
0.000179454
0.00133345
0.0001716
0.00134454
0.000163333
0.00135527
0.000154641
0.00136564
0.00014551
0.00137564
0.000135926
0.00138524
0.000125875
0.00139445
0.000115343
0.00140324
0.000104316
0.00141161
9.27795e-05
0.00141954
8.07192e-05
0.00142704
6.8121e-05
0.00143407
5.49706e-05
0.00144064
4.1254e-05
0.00144674
2.69571e-05
0.00145236
1.20661e-05
0.00145748
-3.43186e-06
0.00146211
-1.9544e-05
0.00146624
-3.62852e-05
0.00146986
-5.3668e-05
0.00147297
-7.17037e-05
0.00147557
-9.0403e-05
0.00147764
-0.000109776
0.0014792
-0.00012983
0.00148023
-0.000150574
0.00148073
-0.000172014
0.00148071
-0.000194152
0.00148015
-0.000216992
0.00147904
-0.00024053
0.00147736
-0.000264761
0.00147511
-0.000289675
0.00147224
-0.000315256
0.00146873
-0.000341479
0.00146453
-0.000368312
0.00145958
-0.000395715
0.00145382
-0.000423636
0.00144717
-0.000452013
0.00143956
-0.000480773
0.00143092
-0.000509834
0.00142116
-0.000539102
0.00141022
-0.00056848
0.00139806
-0.000597862
0.00138462
-0.000627143
0.00136992
-0.000656219
0.00135397
-0.000684992
0.00133682
-0.000713374
0.00131855
-0.000741293
0.00129931
-0.000768694
0.00127925
-0.000795548
0.00125861
-0.000821858
0.00123765
-0.000847647
0.00121675
-0.000873015
-0.000897734
0.00119632
0.00109597
0.000243703
-0.00108073
0.00111108
0.00024097
0.00112605
0.000238018
0.00114086
0.000234834
0.00115551
0.000231408
0.00116998
0.000227731
0.00118426
0.000223792
0.00119835
0.000219584
0.00121222
0.000215094
0.00122586
0.000210312
0.00123927
0.000205229
0.00125243
0.000199831
0.00126532
0.000194109
0.00127794
0.00018805
0.00129028
0.000181643
0.00130231
0.000174874
0.00131403
0.000167732
0.00132543
0.000160203
0.00133649
0.000152274
0.0013472
0.000143931
0.00135755
0.000135162
0.00136752
0.000125951
0.00137711
0.000116285
0.00138631
0.000106149
0.00139509
9.55286e-05
0.00140346
8.44092e-05
0.00141141
7.2776e-05
0.00141891
6.06142e-05
0.00142598
4.79089e-05
0.00143258
3.46456e-05
0.00143873
2.08094e-05
0.00144441
6.38581e-06
0.00144962
-8.63637e-06
0.00145434
-2.42687e-05
0.00145858
-4.05256e-05
0.00146233
-5.74197e-05
0.00146559
-7.49627e-05
0.00146835
-9.3165e-05
0.00147061
-0.000112036
0.00147237
-0.000131583
0.00147361
-0.000151812
0.00147432
-0.000172727
0.00147449
-0.000194328
0.00147412
-0.000216612
0.00147316
-0.000239572
0.00147159
-0.000263196
0.00146939
-0.000287468
0.00146649
-0.000312362
0.00146286
-0.000337848
0.00145844
-0.000363887
0.00145315
-0.000390433
0.00144695
-0.000417431
0.00143975
-0.000444817
0.0014315
-0.00047252
0.00142213
-0.000500464
0.00141159
-0.000528565
0.00139985
-0.000556737
0.00138688
-0.000584893
0.00137268
-0.000612945
0.00135728
-0.000640812
0.00134071
-0.000668421
0.00132304
-0.000695708
0.00130438
-0.000722631
0.00128485
-0.000749169
0.00126463
-0.000775329
0.00124393
-0.000801157
0.00122301
-0.000826725
0.0012022
-0.000852203
-0.000877839
0.0011823
0.0010895
0.000228488
-0.00107429
0.00110458
0.000225886
0.00111952
0.000223077
0.00113431
0.000220047
0.00114893
0.000216787
0.00116338
0.000213286
0.00117763
0.000209537
0.00119169
0.000205528
0.00120553
0.000201251
0.00121915
0.000196694
0.00123253
0.000191847
0.00124566
0.000186699
0.00125853
0.000181238
0.00127113
0.000175454
0.00128344
0.000169332
0.00129545
0.000162862
0.00130715
0.000156031
0.00131853
0.000148825
0.00132957
0.000141231
0.00134027
0.000133236
0.00135061
0.000124825
0.00136057
0.000115983
0.00137016
0.000106698
0.00137936
9.69527e-05
0.00138815
8.67333e-05
0.00139654
7.60244e-05
0.0014045
6.48107e-05
0.00141204
5.30767e-05
0.00141914
4.08072e-05
0.0014258
2.79869e-05
0.00143201
1.46006e-05
0.00143776
6.33294e-07
0.00144305
-1.39252e-05
0.00144787
-2.90895e-05
0.00145222
-4.48729e-05
0.00145609
-6.12874e-05
0.00145947
-7.83436e-05
0.00146235
-9.60507e-05
0.00146473
-0.000114416
0.00146659
-0.000133445
0.00146792
-0.00015314
0.00146869
-0.0001735
0.00146889
-0.000194522
0.00146847
-0.000216198
0.00146742
-0.000238515
0.00146568
-0.000261457
0.00146321
-0.000285
0.00145996
-0.000309115
0.00145588
-0.000333768
0.00145091
-0.000358918
0.001445
-0.000384518
0.00143808
-0.000410514
0.00143011
-0.000436846
0.00142104
-0.000463452
0.00141084
-0.000490262
0.00139948
-0.000517204
0.00138695
-0.000544206
0.00137325
-0.000571195
0.0013584
-0.0005981
0.00134245
-0.000624856
0.00132544
-0.00065141
0.00130745
-0.000677718
0.00128858
-0.000703762
0.00126896
-0.000729546
0.00124874
-0.000755109
0.00122811
-0.000780532
0.00120729
-0.000805905
0.00118646
-0.000831377
-0.000857052
0.00116568
0.00108415
0.000213287
-0.00106894
0.00109921
0.000210817
0.00111414
0.000208151
0.00112891
0.000205275
0.00114352
0.000202179
0.00115795
0.000198855
0.0011722
0.000195294
0.00118624
0.000191485
0.00120007
0.00018742
0.00121368
0.000183087
0.00122705
0.000178476
0.00124017
0.000173577
0.00125303
0.000168377
0.00126562
0.000162865
0.00127792
0.000157029
0.00128993
0.000150856
0.00130163
0.000144334
0.001313
0.000137449
0.00132405
0.000130188
0.00133475
0.000122536
0.00134509
0.00011448
0.00135507
0.000106005
0.00136467
9.70964e-05
0.00137389
8.77382e-05
0.0013827
7.79154e-05
0.00139112
6.76123e-05
0.00139911
5.68133e-05
0.00140669
4.55027e-05
0.00141383
3.36646e-05
0.00142053
2.12835e-05
0.00142679
8.34395e-06
0.00143259
-5.16768e-06
0.00143793
-1.92629e-05
0.00144279
-3.39556e-05
0.00144718
-4.92578e-05
0.00145107
-6.51799e-05
0.00145446
-8.17307e-05
0.00145733
-9.89171e-05
0.00145965
-0.000116744
0.00146142
-0.000135213
0.00146261
-0.000154323
0.00146318
-0.000174071
0.0014631
-0.000194448
0.00146235
-0.000215443
0.00146087
-0.000237039
0.00145863
-0.000259217
0.00145558
-0.000281951
0.00145168
-0.000305211
0.00144687
-0.000328963
0.00144112
-0.000353166
0.00143438
-0.000377776
0.00142661
-0.000402745
0.00141778
-0.00042802
0.00140787
-0.000453544
0.00139687
-0.000479258
0.00138477
-0.000505102
0.00137158
-0.000531013
0.00135731
-0.00055693
0.00134201
-0.000582797
0.00132571
-0.00060856
0.00130848
-0.000634181
0.00129039
-0.00065963
0.00127154
-0.000684908
0.00125203
-0.000710038
0.001232
-0.000735081
0.00121161
-0.000760136
0.00119099
-0.000785287
0.0011703
-0.000810683
-0.000836548
0.00114979
0.00108012
0.000198079
-0.00106492
0.0010952
0.000195741
0.00111013
0.000193216
0.00112492
0.000190493
0.00113953
0.000187562
0.00115397
0.000184414
0.00116823
0.000181041
0.00118228
0.000177431
0.00119612
0.000173577
0.00120974
0.000169468
0.00122313
0.000165092
0.00123626
0.00016044
0.00124914
0.0001555
0.00126175
0.00015026
0.00127407
0.000144708
0.00128609
0.000138831
0.00129781
0.000132617
0.0013092
0.000126053
0.00132027
0.000119124
0.00133099
0.000111817
0.00134135
0.000104116
0.00135135
9.60083e-05
0.00136097
8.74773e-05
0.0013702
7.85079e-05
0.00137903
6.90846e-05
0.00138745
5.91915e-05
0.00139545
4.88128e-05
0.00140302
3.79327e-05
0.00141015
2.65354e-05
0.00141683
1.46054e-05
0.00142304
2.12775e-06
0.00142878
-1.09094e-05
0.00143404
-2.45185e-05
0.0014388
-3.87117e-05
0.00144304
-5.34994e-05
0.00144675
-6.88902e-05
0.00144991
-8.48912e-05
0.0014525
-0.000101507
0.00145449
-0.00011874
0.00145587
-0.00013659
0.0014566
-0.000155053
0.00145665
-0.000174122
0.00145599
-0.000193789
0.00145459
-0.000214038
0.0014524
-0.000234853
0.0014494
-0.000256212
0.00144553
-0.00027809
0.00144078
-0.000300459
0.00143511
-0.000323286
0.00142847
-0.000346534
0.00142086
-0.000370163
0.00141225
-0.000394131
0.00140262
-0.000418391
0.00139197
-0.000442895
0.0013803
-0.000467591
0.00136763
-0.000492428
0.00135397
-0.000517353
0.00133935
-0.000542315
0.00132382
-0.000567267
0.00130743
-0.000592168
0.00129024
-0.000616988
0.00127232
-0.000641709
0.00125375
-0.000666343
0.00123463
-0.000690915
0.00121503
-0.000715481
0.001195
-0.0007401
0.00117435
-0.000764642
0.00115251
-0.000788848
-0.000811792
0.00112776
0.0010778
0.000182834
-0.00106255
0.00109291
0.000180627
0.00110788
0.000178244
0.0011227
0.000175674
0.00113736
0.000172907
0.00115184
0.000169935
0.00116613
0.000166749
0.00118022
0.000163339
0.0011941
0.000159696
0.00120776
0.000155811
0.00122118
0.000151672
0.00123435
0.000147268
0.00124726
0.00014259
0.0012599
0.000137624
0.00127224
0.00013236
0.00128429
0.000126783
0.00129603
0.000120883
0.00130744
0.000114645
0.0013185
0.000108055
0.00132922
0.0001011
0.00133957
9.37658e-05
0.00134954
8.60363e-05
0.00135912
7.78969e-05
0.0013683
6.93322e-05
0.00137706
6.03265e-05
0.00138538
5.0864e-05
0.00139327
4.09291e-05
0.0014007
3.05058e-05
0.00140765
1.95788e-05
0.00141412
8.13272e-06
0.0014201
-3.8461e-06
0.00142556
-1.63689e-05
0.00143049
-2.94481e-05
0.00143487
-4.30945e-05
0.00143869
-5.73177e-05
0.00144192
-7.21253e-05
0.00144456
-8.7523e-05
0.00144656
-0.000103514
0.00144792
-0.0001201
0.00144861
-0.000137278
0.0014486
-0.000155045
0.00144787
-0.000173391
0.00144639
-0.000192307
0.00144413
-0.000211779
0.00144107
-0.000231788
0.00143717
-0.000252314
0.00143241
-0.000273333
0.00142677
-0.000294819
0.00142023
-0.000316742
0.00141276
-0.000339069
0.00140436
-0.000361765
0.00139503
-0.000384792
0.00138475
-0.000408111
0.00137353
-0.00043168
0.0013614
-0.000455456
0.00134836
-0.000479396
0.00133447
-0.000503456
0.00131975
-0.000527594
0.00130425
-0.000551775
0.00128805
-0.000575965
0.00127121
-0.000600142
0.00125379
-0.000624292
0.00123587
-0.000648424
0.00121749
-0.000672531
0.00119856
-0.000696558
0.0011788
-0.000720336
0.00115724
-0.000743088
0.0011319
-0.0007635
-0.000778536
0.00109864
0.00107762
0.000167528
-0.00106232
0.0010928
0.000165453
0.00110782
0.000163215
0.0011227
0.0001608
0.00113741
0.0001582
0.00115193
0.000155407
0.00116627
0.000152413
0.0011804
0.000149208
0.00119431
0.000145783
0.001208
0.000142128
0.00122143
0.000138233
0.00123462
0.000134088
0.00124752
0.000129681
0.00126015
0.000125001
0.00127247
0.000120037
0.00128448
0.000114776
0.00129616
0.000109205
0.00130749
0.000103311
0.00131846
9.70817e-05
0.00132906
9.05018e-05
0.00133927
8.35574e-05
0.00134907
7.62336e-05
0.00135846
6.85152e-05
0.0013674
6.03869e-05
0.00137589
5.1833e-05
0.00138392
4.28378e-05
0.00139146
3.33853e-05
0.00139851
2.34599e-05
0.00140504
1.3046e-05
0.00141105
2.12872e-06
0.00141651
-9.30445e-06
0.0014214
-2.12659e-05
0.00142572
-3.37679e-05
0.00142945
-4.68213e-05
0.00143257
-6.04351e-05
0.00143506
-7.46168e-05
0.00143691
-8.93716e-05
0.00143809
-0.000104703
0.0014386
-0.00012061
0.00143842
-0.000137092
0.00143752
-0.000154143
0.00143588
-0.000171755
0.00143349
-0.000189916
0.00143032
-0.000208613
0.00142636
-0.000227829
0.00142159
-0.000247544
0.001416
-0.000267735
0.00140955
-0.000288378
0.00140226
-0.000309447
0.0013941
-0.000330912
0.00138508
-0.000352744
0.0013752
-0.000374909
0.00136446
-0.000397376
0.00135289
-0.000420109
0.00134051
-0.000443077
0.00132736
-0.000466244
0.00131348
-0.000489578
0.00129894
-0.000513049
0.00128379
-0.000536632
0.00126813
-0.000560305
0.00125204
-0.000584047
0.00123557
-0.000607826
0.00121874
-0.000631589
0.00120136
-0.000655153
0.00118284
-0.000678035
0.00116184
-0.00069934
0.00113561
-0.000716862
0.00109931
-0.000727192
-0.000724504
0.00104527
0.00107968
0.000152192
-0.00106435
0.00109488
0.000150259
0.00110992
0.000148173
0.0011248
0.000145923
0.0011395
0.0001435
0.001154
0.000140898
0.00116831
0.000138108
0.0011824
0.000135121
0.00119625
0.000131928
0.00120986
0.000128519
0.00122321
0.000124886
0.00123628
0.000121017
0.00124906
0.000116902
0.00126153
0.00011253
0.00127368
0.000107889
0.00128548
0.000102967
0.00129694
9.7753e-05
0.00130802
9.22326e-05
0.0013187
8.6393e-05
0.00132899
8.02201e-05
0.00133884
7.36995e-05
0.00134826
6.68165e-05
0.00135722
5.95557e-05
0.00136571
5.19017e-05
0.0013737
4.38385e-05
0.00138119
3.53502e-05
0.00138815
2.64206e-05
0.00139458
1.70335e-05
0.00140045
7.17313e-06
0.00140576
-3.17522e-06