/*--------------------------------*- C++ -*----------------------------------*\
| =========                 |                                                 |
| \\      /  F ield         | OpenFOAM: The Open Source CFD Toolbox           |
|  \\    /   O peration     | Version:  2312                                  |
|   \\  /    A nd           | Website:  www.openfoam.com                      |
|    \\/     M anipulation  |                                                 |
\*---------------------------------------------------------------------------*/
FoamFile
{
    version     2.0;
    format      ascii;
    arch        "LSB;label=32;scalar=64";
    class       volVectorField;
    location    "1100";
    object      U;
}
// * * * * * * * * * * * * * * * * * * * * * * * * * * * * * * * * * * * * * //

dimensions      [0 1 -1 0 0 0 0];

internalField   nonuniform List<vector> 
76025
(
(0.0397012 -0.00951251 0)
(0.0399302 -0.00953265 2.11684e-22)
(0.0401608 -0.00954631 0)
(0.0403938 -0.00955502 0)
(0.0406216 -0.0095596 -3.00324e-22)
(0.0408625 -0.00955247 -4.74707e-22)
(0.041098 -0.00954366 7.55926e-22)
(0.0413389 -0.00952462 -2.97059e-22)
(0.041578 -0.00950193 -5.90803e-23)
(0.0418169 -0.00947392 3.72989e-23)
(0.0420563 -0.00943867 1.22156e-23)
(0.0422983 -0.00939454 -3.22116e-23)
(0.042543 -0.00934605 3.88535e-23)
(0.0427861 -0.00928877 0)
(0.0430346 -0.00922044 -7.22387e-23)
(0.043276 -0.0091526 0)
(0.0435219 -0.00906855 0)
(0.0437644 -0.0089861 0)
(0.0440073 -0.00888901 -1.40357e-22)
(0.0442466 -0.00879211 1.83558e-22)
(0.0444863 -0.00868126 2.0503e-22)
(0.044727 -0.00856458 6.58594e-22)
(0.0449628 -0.0084409 -4.54423e-22)
(0.0451976 -0.00830704 -8.1044e-22)
(0.0454312 -0.00816826 -4.1945e-23)
(0.0456604 -0.00802597 -3.59079e-22)
(0.0458916 -0.00786592 9.84329e-22)
(0.0461142 -0.00770329 -1.01436e-21)
(0.0463372 -0.00752875 3.56883e-22)
(0.0465551 -0.00734421 -3.77669e-22)
(0.0467666 -0.00716757 -4.01999e-22)
(0.0469743 -0.00698014 8.94538e-22)
(0.0471819 -0.00677165 -1.36033e-21)
(0.0473841 -0.00656741 -2.56269e-22)
(0.0475802 -0.00634811 1.27627e-21)
(0.0477694 -0.00613082 1.14764e-23)
(0.0479543 -0.00590036 -2.60439e-22)
(0.0481386 -0.00565212 1.39746e-22)
(0.0483196 -0.0054082 7.36289e-24)
(0.0484898 -0.00515305 -2.13838e-22)
(0.0486518 -0.00489542 1.42859e-22)
(0.0488112 -0.00462345 -7.15319e-23)
(0.0489686 -0.00433 1.43834e-22)
(0.0491179 -0.00404099 -2.95559e-22)
(0.0492561 -0.00374008 -3.08649e-22)
(0.049388 -0.00343644 5.90496e-22)
(0.0495159 -0.00311078 6.227e-22)
(0.0496361 -0.00278257 -1.89548e-21)
(0.0497449 -0.00244573 1.23224e-21)
(0.0498472 -0.00210081 -1.92556e-23)
(0.0499413 -0.00174433 -3.1927e-21)
(0.050026 -0.00137179 -1.24646e-21)
(0.0501048 -0.000985321 1.30724e-21)
(0.0501749 -0.000585291 0)
(0.0502301 -0.00017513 -1.25992e-21)
(0.050278 0.000243668 -1.32124e-21)
(0.0503182 0.000683533 3.58287e-23)
(0.0503442 0.00114319 -1.28209e-21)
(0.0503562 0.00162523 1.29238e-21)
(0.050354 0.00212967 -3.74806e-21)
(0.0503516 0.00264382 -2.58452e-21)
(0.0503338 0.00319371 -1.3773e-22)
(0.0502958 0.003772 0)
(0.0502358 0.00437958 6.22297e-21)
(0.0501474 0.00501916 -2.30235e-21)
(0.0500289 0.00568744 1.21181e-21)
(0.049861 0.00642303 -2.28789e-21)
(0.0496358 0.00721037 2.39837e-21)
(0.049374 0.00799689 4.47803e-21)
(0.0396699 -0.00991718 2.3141e-22)
(0.039909 -0.00993742 5.98474e-22)
(0.0401501 -0.00995091 -8.14332e-22)
(0.0403936 -0.009958 0)
(0.0406373 -0.00995989 6.92259e-22)
(0.0408852 -0.00995374 -9.08027e-23)
(0.0411336 -0.00994189 -4.48105e-22)
(0.0413836 -0.00992255 0)
(0.041635 -0.00989641 1.26977e-23)
(0.041887 -0.0098637 -3.8386e-23)
(0.0421397 -0.00982418 1.58049e-23)
(0.0423929 -0.00977703 1.57502e-23)
(0.0426464 -0.00972289 0)
(0.0429004 -0.00966126 0)
(0.0431556 -0.00959069 -2.13098e-22)
(0.0434095 -0.00951449 4.97756e-22)
(0.0436638 -0.00942877 1.40215e-22)
(0.043917 -0.00933698 -4.92562e-22)
(0.0441694 -0.00923639 3.29144e-22)
(0.0444197 -0.00912932 -1.88284e-22)
(0.044669 -0.00901359 2.56185e-22)
(0.0449163 -0.00888998 -4.6797e-22)
(0.0451614 -0.00875863 5.59213e-22)
(0.0454045 -0.0086187 -8.86897e-22)
(0.0456454 -0.00847105 6.07201e-22)
(0.0458838 -0.00831647 1.02327e-21)
(0.0461195 -0.00815271 -7.01032e-22)
(0.0463506 -0.00798217 0)
(0.0465785 -0.0078028 0)
(0.0468031 -0.00761559 -4.47587e-22)
(0.0470249 -0.00741969 0)
(0.0472434 -0.00721699 -4.95934e-22)
(0.0474566 -0.00700565 5.1431e-22)
(0.0476642 -0.00678821 -7.90247e-22)
(0.0478668 -0.00656293 1.66051e-23)
(0.0480644 -0.00632952 -2.75247e-22)
(0.0482575 -0.00608591 0)
(0.0484456 -0.00583458 -5.96751e-22)
(0.0486289 -0.00557717 4.5663e-22)
(0.0488058 -0.00531259 -3.79489e-22)
(0.048976 -0.00503849 2.32939e-22)
(0.0491404 -0.00475441 -1.86522e-24)
(0.0492992 -0.00446341 8.61124e-23)
(0.0494514 -0.00416609 -8.02085e-23)
(0.0495967 -0.00385923 6.68172e-22)
(0.0497352 -0.00354147 -3.39284e-22)
(0.0498673 -0.00321376 -3.54325e-22)
(0.0499923 -0.00287909 6.57319e-22)
(0.050109 -0.00253266 2.03938e-21)
(0.0502182 -0.00217412 -1.02078e-23)
(0.0503194 -0.00180464 2.03792e-21)
(0.0504119 -0.00142206 -6.92156e-22)
(0.0504969 -0.00102665 -2.04888e-21)
(0.0505743 -0.000619843 1.37054e-21)
(0.0506422 -0.000200802 0)
(0.0506999 0.000237773 4.15539e-21)
(0.0507501 0.000690264 1.72244e-23)
(0.0507897 0.00116004 -1.36991e-21)
(0.0508193 0.00164839 -1.4094e-21)
(0.050839 0.00215814 0)
(0.0508478 0.00269839 1.27798e-21)
(0.0508478 0.0032616 3.97086e-21)
(0.050831 0.00384978 0)
(0.0507909 0.00446889 -2.58122e-21)
(0.050719 0.00512521 1.47998e-21)
(0.0506027 0.00582454 -2.59908e-21)
(0.0504329 0.00656934 1.27656e-21)
(0.0501955 0.0073502 -2.45391e-21)
(0.0498735 0.00818266 -2.34967e-21)
(0.0396397 -0.0103489 -1.10915e-21)
(0.039889 -0.0103685 6.82655e-22)
(0.0401409 -0.0103813 -1.82558e-22)
(0.0403954 -0.0103873 6.02868e-22)
(0.040652 -0.0103869 -7.34462e-22)
(0.0409102 -0.0103795 -4.09687e-22)
(0.0411702 -0.0103651 4.92716e-22)
(0.0414319 -0.0103436 0)
(0.0416951 -0.0103148 1.37844e-23)
(0.0419593 -0.0102787 0)
(0.0422242 -0.0102352 1.47161e-23)
(0.0424892 -0.0101841 -2.27117e-23)
(0.0427543 -0.0101254 -3.30935e-22)
(0.0430193 -0.0100589 2.66801e-22)
(0.0432842 -0.00998436 -9.36907e-23)
(0.0435489 -0.00990194 -3.95103e-22)
(0.0438132 -0.00981148 1.36896e-22)
(0.0440768 -0.00971293 1.64525e-22)
(0.0443391 -0.00960648 6.32716e-22)
(0.0445999 -0.00949183 -4.22119e-22)
(0.0448589 -0.00936917 -2.59837e-22)
(0.0451157 -0.0092383 5.65055e-22)
(0.0453702 -0.00909926 -2.57668e-22)
(0.0456223 -0.00895189 -3.329e-22)
(0.0458719 -0.00879637 0)
(0.0461183 -0.00863293 3.817e-22)
(0.0463612 -0.0084615 3.97956e-22)
(0.0466006 -0.00828191 -3.76723e-22)
(0.0468365 -0.00809394 0)
(0.0470688 -0.00789793 9.28198e-22)
(0.0472975 -0.00769346 -5.04535e-22)
(0.0475218 -0.00748182 -3.27408e-23)
(0.0477412 -0.00726265 0)
(0.0479557 -0.00703567 2.72671e-22)
(0.0481652 -0.00680096 -8.80028e-22)
(0.0483697 -0.00655778 5.88935e-22)
(0.0485688 -0.00630644 0)
(0.0487627 -0.00604714 4.68868e-22)
(0.0489513 -0.00578004 -4.76768e-22)
(0.0491341 -0.00550533 -7.87619e-23)
(0.0493105 -0.00522208 0)
(0.0494807 -0.00493028 -1.66549e-22)
(0.0496451 -0.00463006 -8.52126e-23)
(0.0498033 -0.00432119 8.16605e-23)
(0.0499547 -0.00400322 -5.06296e-22)
(0.0500993 -0.00367582 -3.5626e-22)
(0.0502372 -0.00333893 6.84002e-22)
(0.0503682 -0.00299248 -7.11959e-22)
(0.0504918 -0.00263546 7.26129e-22)
(0.050608 -0.00226754 -7.07404e-22)
(0.0507169 -0.0018885 -7.00135e-22)
(0.0508183 -0.00149715 1.47359e-21)
(0.0509125 -0.00109301 0)
(0.0509996 -0.000675857 1.47993e-21)
(0.0510789 -0.000244652 2.59737e-23)
(0.0511502 0.00020249 -1.45685e-21)
(0.0512145 0.000665539 -1.45253e-21)
(0.0512708 0.00114665 2.88001e-21)
(0.0513187 0.00164808 -2.62066e-23)
(0.0513575 0.00217228 1.46626e-21)
(0.051386 0.00272213 -2.91749e-21)
(0.0514025 0.00329754 -1.48032e-21)
(0.0513997 0.00390207 1.69803e-23)
(0.051369 0.00453969 -1.38047e-21)
(0.0513004 0.00521415 -1.28804e-21)
(0.0511819 0.0059285 -4.16179e-21)
(0.0510009 0.00668705 0)
(0.0507395 0.00748569 -1.3466e-21)
(0.0503937 0.00834361 1.27569e-21)
(0.039611 -0.0108057 0)
(0.0398721 -0.0108248 2.08423e-22)
(0.0401358 -0.0108366 8.52499e-22)
(0.0404019 -0.0108414 -6.66936e-22)
(0.0406703 -0.0108391 -3.31951e-22)
(0.0409406 -0.0108296 5.61855e-22)
(0.0412127 -0.0108128 -8.44366e-23)
(0.0414864 -0.0107884 4.53723e-23)
(0.0417613 -0.0107564 3.48197e-23)
(0.0420373 -0.0107168 -4.07807e-23)
(0.042314 -0.0106693 5.80182e-23)
(0.0425912 -0.0106138 2.42719e-22)
(0.0428684 -0.0105503 -6.46603e-24)
(0.0431454 -0.0104786 -3.93563e-22)
(0.0434221 -0.0103986 3.5668e-22)
(0.0436982 -0.0103103 -1.60377e-22)
(0.0439734 -0.0102137 1.85869e-22)
(0.0442476 -0.0101086 2.11303e-22)
(0.0445204 -0.0099952 -6.83529e-22)
(0.0447915 -0.00987333 2.10094e-22)
(0.0450606 -0.00974305 2.60722e-22)
(0.0453275 -0.00960429 0)
(0.0455918 -0.00945707 6.97718e-22)
(0.0458534 -0.00930142 -3.37181e-22)
(0.0461119 -0.0091374 -7.6802e-22)
(0.0463671 -0.00896511 -8.42441e-22)
(0.0466188 -0.00878451 1.66474e-21)
(0.0468666 -0.00859557 -8.9433e-22)
(0.0471106 -0.00839834 0)
(0.0473504 -0.00819293 -9.93557e-22)
(0.047586 -0.00797949 -2.73373e-23)
(0.0478169 -0.00775828 1.06411e-21)
(0.0480431 -0.00752919 -5.81822e-22)
(0.0482644 -0.0072922 1.49983e-21)
(0.0484805 -0.00704735 -2.89043e-22)
(0.0486912 -0.00679429 0)
(0.0488965 -0.0065332 0)
(0.0490964 -0.00626406 1.6917e-22)
(0.0492906 -0.005987 1.62927e-22)
(0.0494789 -0.00570208 8.73244e-23)
(0.0496611 -0.00540895 -2.76699e-24)
(0.0498371 -0.00510738 8.51623e-23)
(0.0500071 -0.00479727 0)
(0.0501708 -0.00447861 -8.95368e-24)
(0.0503281 -0.00415118 0)
(0.0504788 -0.00381454 3.49616e-22)
(0.0506229 -0.00346834 7.00944e-24)
(0.0507606 -0.00311236 -1.12207e-21)
(0.0508915 -0.00274611 0)
(0.0510157 -0.00236898 -7.5213e-22)
(0.0511332 -0.00198043 7.4272e-22)
(0.0512443 -0.00157974 -1.4678e-21)
(0.0513489 -0.00116626 0)
(0.0514475 -0.000739398 -4.53505e-21)
(0.0515398 -0.000298267 2.4051e-23)
(0.0516259 0.000158578 1.49873e-21)
(0.051706 0.000632325 1.4943e-21)
(0.0517796 0.00112461 0)
(0.0518457 0.00163751 0)
(0.0519026 0.00217334 -1.45112e-21)
(0.0519473 0.00273473 2.88377e-21)
(0.0519754 0.0033236 2.86316e-21)
(0.0519792 0.00394259 0)
(0.051949 0.00459486 -2.9732e-21)
(0.0518738 0.00528362 0)
(0.051741 0.0060117 4.19638e-21)
(0.0515393 0.00678254 -1.39999e-21)
(0.0512527 0.00759355 -1.41591e-21)
(0.0508794 0.00846727 -1.45595e-21)
(0.0395837 -0.011288 0)
(0.0398578 -0.0113065 0)
(0.0401344 -0.0113174 1.65233e-22)
(0.0404133 -0.0113208 -5.24756e-22)
(0.0406944 -0.0113167 6.34208e-22)
(0.0409774 -0.0113049 -9.75326e-23)
(0.0412622 -0.0112853 0)
(0.0415484 -0.0112578 -4.55641e-23)
(0.0418359 -0.0112222 0)
(0.0421243 -0.0111785 5.59927e-23)
(0.0424134 -0.0111266 7.21072e-23)
(0.0427029 -0.0110662 -1.08629e-22)
(0.0429925 -0.0109974 0)
(0.0432819 -0.0109201 2.66378e-22)
(0.0435707 -0.0108341 -8.78683e-22)
(0.0438587 -0.0107394 6.64863e-22)
(0.0441456 -0.010636 -9.79625e-22)
(0.0444311 -0.0105239 2.10631e-22)
(0.044715 -0.0104029 -2.64393e-22)
(0.0449969 -0.0102733 2.62705e-22)
(0.0452766 -0.0101349 3.11575e-22)
(0.0455537 -0.00998771 -9.71814e-22)
(0.045828 -0.00983184 -7.06976e-22)
(0.0460993 -0.00966731 0)
(0.0463672 -0.00949417 8.31338e-22)
(0.0466315 -0.00931249 4.61711e-22)
(0.046892 -0.00912233 -1.3227e-21)
(0.0471483 -0.00892375 4.63291e-22)
(0.0474004 -0.00871682 -1.03284e-21)
(0.047648 -0.00850165 1.55021e-21)
(0.047891 -0.00827834 -5.74356e-22)
(0.0481291 -0.00804701 3.00029e-22)
(0.0483623 -0.00780776 0)
(0.0485902 -0.00756068 -3.0683e-22)
(0.0488127 -0.00730564 -3.16996e-22)
(0.0490297 -0.00704246 0)
(0.0492411 -0.00677129 3.49568e-22)
(0.0494468 -0.00649215 -5.1881e-22)
(0.0496467 -0.00620509 3.46624e-22)
(0.0498407 -0.00591008 -1.78512e-22)
(0.0500286 -0.00560698 -3.04807e-24)
(0.0502104 -0.00529558 -1.40212e-22)
(0.0503861 -0.00497579 4.57447e-23)
(0.0505558 -0.00464748 1.82436e-22)
(0.0507192 -0.0043104 5.82435e-24)
(0.0508764 -0.00396421 1.13767e-21)
(0.0510275 -0.00360859 0)
(0.0511725 -0.00324321 7.52789e-22)
(0.0513114 -0.00286762 -1.23568e-23)
(0.0514445 -0.00248125 -7.7136e-22)
(0.0515718 -0.00208353 0)
(0.0516936 -0.00167381 -7.88494e-22)
(0.0518103 -0.00125133 7.77751e-22)
(0.051922 -0.000815314 1.53277e-21)
(0.0520289 -0.000364736 0)
(0.0521309 0.000101733 -3.10695e-21)
(0.0522275 0.000585547 3.12481e-21)
(0.0523179 0.00108841 -3.11456e-21)
(0.0523998 0.00161242 -4.90598e-23)
(0.0524702 0.00215987 0)
(0.0525244 0.00273318 -1.54358e-21)
(0.0525559 0.0033346 1.48327e-21)
(0.0525561 0.00396649 1.60168e-21)
(0.0525149 0.0046314 2.92183e-21)
(0.0524214 0.00533188 -4.56025e-21)
(0.0522647 0.00607016 2.95972e-21)
(0.0520355 0.00684927 -1.45938e-21)
(0.0517214 0.00766763 1.54316e-21)
(0.0513236 0.00855013 4.17728e-21)
(0.0395569 -0.011798 -7.93088e-22)
(0.039845 -0.0118159 1.091e-22)
(0.0401356 -0.0118257 6.83999e-22)
(0.0404284 -0.0118276 0)
(0.0407234 -0.0118215 -1.11198e-22)
(0.0410201 -0.0118072 0)
(0.0413185 -0.0117846 7.05705e-23)
(0.0416182 -0.0117537 -5.53085e-23)
(0.0419191 -0.0117143 1.42172e-24)
(0.0422209 -0.0116662 -4.46996e-23)
(0.0425231 -0.0116094 -5.15731e-23)
(0.0428256 -0.0115438 -1.00875e-22)
(0.0431281 -0.0114693 0)
(0.0434302 -0.0113858 0)
(0.0437315 -0.0112933 1.58912e-22)
(0.0440319 -0.0111917 1.85526e-22)
(0.044331 -0.011081 -4.76771e-22)
(0.0446284 -0.0109612 4.76736e-22)
(0.0449238 -0.0108322 5.58853e-22)
(0.0452171 -0.0106942 -6.36676e-22)
(0.0455077 -0.010547 1.29549e-21)
(0.0457955 -0.0103909 1.99068e-23)
(0.0460802 -0.0102258 -7.75639e-22)
(0.0463615 -0.0100517 -4.2816e-22)
(0.0466391 -0.00986885 -8.98034e-22)
(0.0469127 -0.00967723 9.0005e-22)
(0.0471822 -0.00947697 1.0011e-21)
(0.0474472 -0.00926816 -1.00403e-21)
(0.0477076 -0.00905089 0)
(0.0479632 -0.00882528 0)
(0.0482138 -0.00859146 1.48145e-21)
(0.0484592 -0.00834957 4.23696e-23)
(0.0486993 -0.00809971 -6.31166e-22)
(0.0489339 -0.00784205 -6.79326e-22)
(0.0491629 -0.00757633 6.75672e-22)
(0.0493862 -0.00730255 0)
(0.0496037 -0.00702086 -3.47076e-22)
(0.0498153 -0.0067313 -5.54081e-22)
(0.050021 -0.00643389 3.63517e-22)
(0.0502208 -0.00612859 -4.93598e-24)
(0.0504145 -0.00581532 -2.9934e-23)
(0.0506023 -0.00549395 1.40631e-22)
(0.0507841 -0.00516433 9.921e-23)
(0.05096 -0.0048263 1.97178e-22)
(0.05113 -0.00447963 -9.76714e-22)
(0.0512943 -0.00412404 5.4665e-24)
(0.051453 -0.00375918 0)
(0.0516063 -0.00338469 -8.2222e-22)
(0.0517543 -0.0030001 2.42654e-21)
(0.0518974 -0.00260487 -1.63102e-21)
(0.0520358 -0.0021984 -8.17654e-22)
(0.0521699 -0.00177998 -2.5789e-23)
(0.0523 -0.0013488 -8.06086e-22)
(0.0524262 -0.000903923 -2.39569e-23)
(0.0525483 -0.000444217 1.61291e-21)
(0.0526658 3.1707e-05 -1.66017e-21)
(0.0527775 0.000525445 -1.62768e-21)
(0.0528812 0.00103881 3.21951e-21)
(0.0529734 0.00157384 -2.60191e-23)
(0.0530494 0.00213271 1.6038e-21)
(0.0531031 0.0027176 -1.57074e-21)
(0.0531266 0.00333056 1.5331e-21)
(0.0531112 0.00397351 -3.04344e-21)
(0.0530473 0.00464839 -1.56264e-21)
(0.0529256 0.00535707 2.9764e-21)
(0.0527379 0.00610139 -1.63009e-21)
(0.052478 0.00688412 -4.69934e-21)
(0.0521376 0.00770459 -1.47043e-21)
(0.0517196 0.00858635 0)
(0.0395303 -0.0123378 0)
(0.0398335 -0.012355 -1.7019e-22)
(0.040139 -0.0123636 -1.36586e-23)
(0.0404468 -0.0123638 0)
(0.0407566 -0.0123555 0)
(0.0410682 -0.0123385 -5.10587e-23)
(0.0413813 -0.0123128 5.55441e-23)
(0.0416956 -0.0122782 -1.02721e-23)
(0.042011 -0.0122345 -2.55808e-24)
(0.042327 -0.0121818 4.47308e-23)
(0.0426433 -0.0121198 0)
(0.0429597 -0.0120485 1.00929e-22)
(0.0432759 -0.0119678 -1.54621e-22)
(0.0435914 -0.0118777 0)
(0.0439061 -0.0117781 0)
(0.0442194 -0.011669 2.38253e-22)
(0.0445312 -0.0115503 5.5907e-23)
(0.0448411 -0.0114222 -5.34723e-22)
(0.0451487 -0.0112846 -6.13384e-22)
(0.0454537 -0.0111375 6.45373e-22)
(0.0457559 -0.010981 3.47835e-22)
(0.0460548 -0.0108152 1.59166e-21)
(0.0463503 -0.0106401 2.84976e-23)
(0.0466419 -0.0104558 -4.87481e-22)
(0.0469295 -0.0102625 9.1653e-22)
(0.0472128 -0.0100603 -5.03178e-22)
(0.0474914 -0.0098492 1.023e-21)
(0.0477653 -0.00962948 0)
(0.0480342 -0.0094012 0)
(0.0482978 -0.00916452 0)
(0.0485562 -0.00891957 -3.04551e-22)
(0.048809 -0.00866651 -6.4521e-22)
(0.0490561 -0.00840549 6.68635e-22)
(0.0492975 -0.00813668 7.17186e-22)
(0.0495331 -0.00785978 -7.1084e-22)
(0.0497627 -0.00757497 0)
(0.0499863 -0.00728239 3.79128e-22)
(0.050204 -0.00698209 -1.90007e-22)
(0.0504157 -0.00667409 0)
(0.0506214 -0.00635836 1.95493e-22)
(0.0508213 -0.00603483 -3.70219e-23)
(0.0510153 -0.0057034 2.46957e-23)
(0.0512036 -0.00536394 -9.84023e-23)
(0.0513864 -0.00501626 0)
(0.0515638 -0.00466015 -4.13743e-22)
(0.051736 -0.00429532 4.08718e-22)
(0.0519032 -0.00392143 0)
(0.0520658 -0.00353809 -2.60953e-23)
(0.0522242 -0.00314482 1.192e-23)
(0.0523786 -0.00274105 8.20023e-22)
(0.0525294 -0.00232614 0)
(0.0526768 -0.00189929 -3.87454e-23)
(0.0528209 -0.00145959 -8.22225e-22)
(0.0529615 -0.00100597 -2.5523e-21)
(0.0530976 -0.000537153 -5.18344e-23)
(0.0532279 -5.16508e-05 1.634e-21)
(0.0533498 0.000452202 0)
(0.0534597 0.000976211 0)
(0.053553 0.00152227 1.68663e-21)
(0.0536234 0.00209228 0)
(0.0536641 0.00268799 0)
(0.0536671 0.00331099 -2.64748e-23)
(0.0536243 0.00396266 -1.59248e-21)
(0.0535279 0.00464431 -3.24657e-21)
(0.0533713 0.00535729 3.2081e-21)
(0.0531491 0.00610316 -1.58025e-22)
(0.0528585 0.00688446 1.49749e-21)
(0.052495 0.00770123 1.59275e-21)
(0.0520624 0.00857476 0)
(0.0395042 -0.0129096 0)
(0.0398233 -0.012926 1.70044e-22)
(0.0401449 -0.0129333 -3.76174e-22)
(0.0404686 -0.0129315 1.41941e-22)
(0.0407944 -0.0129208 0)
(0.0411219 -0.0129009 1.04725e-22)
(0.0414507 -0.0128717 -6.82389e-23)
(0.0417807 -0.012833 6.03155e-23)
(0.0421116 -0.0127848 -2.31639e-22)
(0.0424429 -0.012727 3.51106e-23)
(0.0427744 -0.0126593 -1.22225e-22)
(0.0431057 -0.0125819 -1.52538e-22)
(0.0434365 -0.0124945 5.19146e-22)
(0.0437665 -0.0123972 -7.87686e-22)
(0.0440952 -0.01229 4.2292e-22)
(0.0444224 -0.0121727 -2.99038e-22)
(0.0447477 -0.0120456 1.13606e-21)
(0.0450707 -0.0119084 -2.66124e-22)
(0.0453911 -0.0117614 3.85617e-22)
(0.0457085 -0.0116046 -3.32091e-22)
(0.0460227 -0.011438 5.54648e-23)
(0.0463333 -0.0112617 -2.55329e-21)
(0.0466399 -0.0110759 -4.89001e-22)
(0.0469424 -0.0108807 -5.33355e-23)
(0.0472404 -0.0106762 1.51659e-21)
(0.0475336 -0.0104626 -5.15397e-22)
(0.0478218 -0.01024 1.14772e-21)
(0.0481047 -0.0100086 -1.76005e-21)
(0.0483823 -0.00976861 0)
(0.0486543 -0.00952016 -6.52627e-22)
(0.0489205 -0.00926342 6.54718e-22)
(0.0491808 -0.0089986 2.18452e-23)
(0.0494352 -0.00872586 -3.70945e-22)
(0.0496835 -0.00844537 -3.83346e-22)
(0.0499257 -0.00815686 1.1589e-21)
(0.0501618 -0.00786064 -7.60283e-22)
(0.0503919 -0.00755682 5.98281e-22)
(0.0506158 -0.00724547 -7.94725e-22)
(0.0508338 -0.00692663 3.97892e-22)
(0.0510459 -0.00660029 -9.93198e-23)
(0.0512522 -0.0062664 0)
(0.051453 -0.00592487 1.05073e-22)
(0.0516485 -0.00557557 -1.03847e-22)
(0.0518388 -0.00521833 -2.13401e-22)
(0.0520243 -0.00485292 6.40245e-22)
(0.0522054 -0.00447906 -4.30906e-22)
(0.0523823 -0.00409639 -4.26131e-22)
(0.0525554 -0.00370449 0)
(0.0527252 -0.00330282 -1.75796e-21)
(0.0528919 -0.00289077 1.73296e-21)
(0.0530556 -0.00246757 -8.46517e-22)
(0.0532162 -0.00203233 8.34503e-22)
(0.0533732 -0.00158399 8.73141e-22)
(0.0535254 -0.00112135 1.70222e-21)
(0.0536711 -0.000643005 1.68417e-21)
(0.0538075 -0.000147439 0)
(0.0539308 0.000366973 -1.74661e-21)
(0.0540364 0.000901872 0)
(0.0541184 0.00145884 5.01547e-23)
(0.0541703 0.00203933 -1.63717e-21)
(0.0541852 0.00264456 1.65286e-21)
(0.0541562 0.00327553 1.61794e-21)
(0.0540768 0.00393304 -1.68607e-21)
(0.0539418 0.00461791 -5.23338e-23)
(0.0537472 0.00533108 2.34772e-23)
(0.053491 0.00607397 4.90696e-21)
(0.0531731 0.00684899 1.70133e-21)
(0.0527922 0.00765699 1.70936e-21)
(0.0523543 0.00851832 -1.64189e-21)
(0.0394789 -0.0135162 0)
(0.039815 -0.0135317 0)
(0.0401536 -0.0135373 -2.0043e-22)
(0.0404945 -0.0135335 2.92859e-22)
(0.0408372 -0.0135201 4.12967e-23)
(0.0411817 -0.0134969 0)
(0.0415274 -0.0134638 0)
(0.0418742 -0.0134207 5.51946e-23)
(0.0422216 -0.0133675 -1.77419e-22)
(0.0425693 -0.0133041 -8.99497e-23)
(0.042917 -0.0132303 6.62075e-22)
(0.0432643 -0.0131461 -1.48778e-22)
(0.0436108 -0.0130515 2.10528e-22)
(0.0439561 -0.0129465 -4.23028e-22)
(0.0442999 -0.0128309 2.74834e-22)
(0.0446418 -0.0127049 0)
(0.0449814 -0.0125685 0)
(0.0453184 -0.0124217 2.70484e-23)
(0.0456523 -0.0122645 -1.11659e-21)
(0.0459829 -0.0120971 3.86235e-22)
(0.0463098 -0.0119196 -4.53767e-22)
(0.0466326 -0.0117322 4.42472e-22)
(0.046951 -0.0115348 4.95277e-22)
(0.0472647 -0.0113278 -4.6794e-22)
(0.0475735 -0.0111113 -5.24972e-22)
(0.0478771 -0.0108855 0)
(0.0481752 -0.0106506 0)
(0.0484676 -0.0104068 9.30169e-22)
(0.0487541 -0.0101543 0)
(0.0490347 -0.00989336 6.91522e-22)
(0.049309 -0.00962415 -6.93505e-22)
(0.0495772 -0.00934691 -3.54854e-22)
(0.049839 -0.00906188 3.677e-22)
(0.0500945 -0.00876911 7.80369e-22)
(0.0503437 -0.00846856 -3.85492e-22)
(0.0505866 -0.00816049 -4.08247e-22)
(0.0508232 -0.00784507 4.15326e-22)
(0.0510538 -0.00752239 0)
(0.0512785 -0.00719249 0)
(0.0514975 -0.0068554 1.08926e-22)
(0.0517109 -0.00651108 0)
(0.0519192 -0.00615945 0)
(0.0521226 -0.0058004 -3.31207e-22)
(0.0523214 -0.00543374 4.41435e-22)
(0.0525161 -0.00505923 -2.25648e-22)
(0.0527071 -0.00467655 4.31976e-22)
(0.0528946 -0.00428531 0)
(0.0530791 -0.00388501 1.35204e-21)
(0.0532606 -0.00347502 -1.28147e-23)
(0.0534392 -0.0030546 0)
(0.0536144 -0.00262287 -1.78222e-21)
(0.0537853 -0.0021788 -1.41209e-23)
(0.0539506 -0.00172119 -1.74783e-21)
(0.0541081 -0.00124876 -9.0435e-22)
(0.0542548 -0.00076009 -1.77322e-21)
(0.0543869 -0.000253755 1.73907e-21)
(0.0544997 0.000271661 1.70403e-21)
(0.0545877 0.000817464 0)
(0.0546453 0.00138479 -1.73371e-21)
(0.0546662 0.00197453 2.47992e-23)
(0.0546447 0.00258734 0)
(0.0545755 0.00322366 0)
(0.0544546 0.00388381 1.65303e-21)
(0.0542792 0.0045682 0)
(0.0540479 0.0052775 0)
(0.0537615 0.00601305 -1.69382e-21)
(0.0534221 0.00677722 -1.64304e-21)
(0.0530304 0.007571 -1.81331e-21)
(0.0525953 0.00841548 0)
(0.0394551 -0.0141609 0)
(0.0398094 -0.0141752 0)
(0.0401662 -0.014179 0)
(0.0405252 -0.0141727 5.12503e-23)
(0.0408861 -0.0141563 -1.31855e-23)
(0.0412486 -0.0141294 -6.54341e-23)
(0.0416124 -0.0140921 3.75453e-23)
(0.041977 -0.0140441 -5.48558e-23)
(0.0423421 -0.0139854 1.15678e-22)
(0.0427074 -0.0139158 2.6672e-22)
(0.0430724 -0.0138353 0)
(0.0434367 -0.0137439 0)
(0.0437999 -0.0136414 -2.93335e-23)
(0.0441616 -0.0135279 7.64025e-22)
(0.0445215 -0.0134033 -1.19354e-21)
(0.0448791 -0.0132678 -6.19456e-23)
(0.045234 -0.0131213 6.717e-22)
(0.0455858 -0.0129639 3.62835e-22)
(0.0459341 -0.0127958 -4.06925e-23)
(0.0462786 -0.0126171 0)
(0.0466189 -0.0124278 9.4272e-22)
(0.0469546 -0.0122283 0)
(0.0472855 -0.0120185 1.05761e-21)
(0.0476111 -0.0117989 -1.6735e-21)
(0.0479313 -0.0115695 1.74751e-21)
(0.0482457 -0.0113306 6.35511e-22)
(0.0485541 -0.0110825 -9.82911e-22)
(0.0488564 -0.0108255 1.00901e-21)
(0.0491523 -0.0105597 -6.79394e-22)
(0.0494417 -0.0102855 0)
(0.0497246 -0.0100031 -7.56446e-22)
(0.0500009 -0.00971276 -4.21591e-22)
(0.0502705 -0.00941481 7.84384e-22)
(0.0505336 -0.00910921 -8.15403e-22)
(0.0507901 -0.00879612 4.19146e-22)
(0.0510402 -0.00847581 -4.1471e-22)
(0.0512841 -0.00814846 -2.07104e-22)
(0.0515219 -0.00781419 2.21561e-22)
(0.051754 -0.00747307 1.08122e-22)
(0.0519806 -0.00712513 -3.24631e-22)
(0.052202 -0.00677036 -2.84505e-23)
(0.0524187 -0.00640869 0)
(0.0526309 -0.00603996 1.09621e-22)
(0.0528392 -0.00566398 -2.2044e-22)
(0.0530439 -0.00528045 2.21403e-22)
(0.0532453 -0.00488898 0)
(0.0534435 -0.00448907 0)
(0.0536384 -0.0040801 4.73479e-22)
(0.0538298 -0.00366134 -9.05056e-22)
(0.054017 -0.00323189 -1.85086e-21)
(0.0541987 -0.00279075 3.63942e-21)
(0.0543733 -0.00233678 -9.26779e-22)
(0.0545382 -0.00186876 8.97189e-22)
(0.0546904 -0.00138544 8.80422e-22)
(0.0548261 -0.000885545 -1.80372e-21)
(0.0549407 -0.000367899 1.76833e-21)
(0.0550296 0.000168559 0)
(0.0550874 0.000724688 -1.79993e-21)
(0.055109 0.00130111 2.58921e-23)
(0.0550897 0.00189822 1.73016e-21)
(0.0550254 0.00251614 0)
(0.0549128 0.00315488 0)
(0.0547499 0.00381438 0)
(0.0545363 0.00449472 3.53948e-21)
(0.0542728 0.00519638 1.82764e-21)
(0.0539622 0.00592047 1.78336e-21)
(0.0536088 0.00666939 -3.58931e-21)
(0.0532159 0.00744422 -7.42883e-23)
(0.0527994 0.00827321 1.90857e-21)
(0.039434 -0.0148474 0)
(0.0398076 -0.0148603 1.81956e-22)
(0.0401838 -0.014862 -2.11839e-22)
(0.0405623 -0.014853 6.94953e-24)
(0.0409426 -0.0148331 -3.56482e-23)
(0.0413244 -0.0148022 4.37341e-23)
(0.0417074 -0.0147601 7.8305e-23)
(0.0420911 -0.0147067 0)
(0.0424751 -0.0146419 -2.61491e-22)
(0.0428591 -0.0145656 -3.25228e-22)
(0.0432425 -0.0144778 3.58134e-22)
(0.043625 -0.0143783 -2.47982e-22)
(0.0440061 -0.0142672 3.11095e-22)
(0.0443853 -0.0141444 -2.10119e-22)
(0.0447623 -0.0140101 -1.33961e-21)
(0.0451366 -0.0138641 -6.35573e-23)
(0.0455078 -0.0137067 -6.27675e-23)
(0.0458754 -0.013538 8.05754e-22)
(0.0462391 -0.013358 4.28224e-22)
(0.0465984 -0.0131669 9.87614e-22)
(0.046953 -0.012965 -9.41408e-22)
(0.0473024 -0.0127523 0)
(0.0476464 -0.0125292 4.73991e-23)
(0.0479847 -0.0122959 0)
(0.0483169 -0.0120527 -6.00072e-22)
(0.0486428 -0.0117999 -6.27384e-22)
(0.0489621 -0.0115377 3.27162e-22)
(0.0492748 -0.0112665 0)
(0.0495806 -0.0109866 3.78863e-22)
(0.0498795 -0.0106983 7.69221e-22)
(0.0501715 -0.010402 -7.70719e-22)
(0.0504564 -0.0100979 3.91866e-22)
(0.0507344 -0.00978643 -8.4391e-22)
(0.0510056 -0.00946747 1.67704e-21)
(0.0512702 -0.00914139 -4.24694e-22)
(0.0515282 -0.00880846 0)
(0.05178 -0.00846888 -2.27019e-22)
(0.0520259 -0.0081228 1.2286e-23)
(0.0522662 -0.00777029 3.36771e-22)
(0.0525013 -0.00741141 -2.81755e-22)
(0.0527315 -0.0070461 5.50621e-23)
(0.0529573 -0.00667428 -1.74778e-22)
(0.0531789 -0.00629574 1.1434e-22)
(0.0533966 -0.00591019 0)
(0.0536106 -0.00551726 0)
(0.0538208 -0.00511641 0)
(0.0540269 -0.00470705 4.7645e-22)
(0.0542282 -0.00428841 4.76075e-22)
(0.0544238 -0.00385963 0)
(0.0546121 -0.00341973 9.21021e-22)
(0.0547911 -0.00296767 9.58428e-22)
(0.0549583 -0.00250233 9.41287e-22)
(0.0551106 -0.00202262 0)
(0.0552443 -0.00152745 0)
(0.0553555 -0.00101586 -1.82699e-21)
(0.0554399 -0.000487026 1.79191e-21)
(0.0554931 5.97015e-05 0)
(0.055511 0.000624739 1.74989e-21)
(0.0554897 0.00120828 -1.74369e-21)
(0.055426 0.00181029 -1.81424e-21)
(0.0553175 0.00243056 1.78911e-21)
(0.0551627 0.00306876 -1.76688e-21)
(0.0549615 0.00372457 0)
(0.0547149 0.00439774 -1.77185e-21)
(0.0544257 0.00508848 5.21411e-23)
(0.0540979 0.00579743 -3.76217e-21)
(0.0537377 0.0065267 -3.90413e-21)
(0.0533517 0.00727702 3.92521e-21)
(0.0529544 0.00807537 -1.9606e-21)
(0.0394168 -0.0155802 5.18321e-23)
(0.0398113 -0.0155914 0)
(0.0402083 -0.0155907 3.00752e-23)
(0.0406075 -0.0155786 -2.95212e-24)
(0.0410087 -0.0155549 -7.95193e-23)
(0.0414112 -0.0155194 3.67565e-23)
(0.0418147 -0.0154721 -7.72767e-23)
(0.0422189 -0.0154128 2.88904e-22)
(0.0426232 -0.0153413 -1.43211e-22)
(0.0430272 -0.0152576 -1.78442e-22)
(0.0434304 -0.0151617 -2.50318e-22)
(0.0438323 -0.0150534 8.04716e-22)
(0.0442325 -0.0149329 -2.40467e-22)
(0.0446306 -0.0148001 1.04374e-21)
(0.0450259 -0.014655 4.07273e-22)
(0.0454181 -0.0144978 6.49392e-23)
(0.0458068 -0.0143285 -8.19006e-22)
(0.0461913 -0.0141474 0)
(0.0465714 -0.0139545 0)
(0.0469465 -0.0137501 -5.43965e-22)
(0.0473164 -0.0135344 -5.24712e-22)
(0.0476805 -0.0133076 -1.18357e-21)
(0.0480386 -0.0130701 6.01074e-22)
(0.0483904 -0.0128222 1.29688e-21)
(0.0487355 -0.0125641 -1.29713e-21)
(0.0490737 -0.0122963 3.58841e-22)
(0.0494048 -0.0120191 3.72386e-22)
(0.0497287 -0.0117328 0)
(0.0500453 -0.0114379 -3.71848e-22)
(0.0503545 -0.0111348 -8.06453e-22)
(0.0506563 -0.0108237 -2.36111e-23)
(0.0509507 -0.0105052 8.3235e-22)
(0.0512379 -0.0101795 -4.46785e-22)
(0.0515181 -0.00984663 0)
(0.0517915 -0.00950706 2.29313e-22)
(0.0520582 -0.00916107 -2.31817e-22)
(0.0523188 -0.00880886 2.21139e-22)
(0.0525734 -0.00845057 -4.59204e-22)
(0.0528224 -0.00808628 0)
(0.0530661 -0.00771599 -5.9745e-23)
(0.0533049 -0.00733961 5.85059e-23)
(0.0535388 -0.00695696 -9.12305e-23)
(0.053768 -0.00656775 3.54111e-22)
(0.0539925 -0.00617157 -7.09559e-22)
(0.0542118 -0.00576793 4.68529e-22)
(0.0544254 -0.00535619 4.75828e-22)
(0.0546323 -0.00493564 -4.46211e-22)
(0.0548314 -0.00450545 9.70513e-22)
(0.0550209 -0.00406473 -9.32735e-22)
(0.0551988 -0.00361254 -2.33839e-21)
(0.0553624 -0.00314793 1.35447e-23)
(0.0555089 -0.00266997 -9.09185e-22)
(0.0556351 -0.00217779 0)
(0.0557376 -0.00167063 0)
(0.0558129 -0.00114786 -1.84558e-21)
(0.0558574 -0.000608996 2.71857e-21)
(0.0558679 -5.37619e-05 -1.80689e-21)
(0.0558414 0.000517944 0)
(0.0557755 0.00110603 1.85188e-21)
(0.0556683 0.00171022 3.60979e-21)
(0.0555189 0.0023301 -1.78727e-21)
(0.0553271 0.00296513 -2.63747e-23)
(0.0550939 0.00361473 1.84407e-21)
(0.0548215 0.00427833 -2.07348e-23)
(0.0545137 0.0049557 -3.85377e-21)
(0.0541759 0.00564685 3.90498e-21)
(0.0538153 0.00635317 2.01121e-21)
(0.0534419 0.00707563 0)
(0.0530612 0.00781858 0)
(0.0394056 -0.0163648 -5.08518e-23)
(0.0398225 -0.016374 -9.57231e-23)
(0.0402419 -0.0163707 7.5232e-23)
(0.0406636 -0.0163551 0)
(0.0410871 -0.0163272 -1.89726e-23)
(0.0415119 -0.0162868 -2.14469e-22)
(0.0419377 -0.0162336 1.41465e-22)
(0.0423639 -0.0161678 -4.4736e-22)
(0.04279 -0.016089 3.55843e-22)
(0.0432156 -0.0159972 0)
(0.0436402 -0.0158925 1.01586e-22)
(0.0440631 -0.0157747 0)
(0.044484 -0.0156438 3.88686e-22)
(0.0449023 -0.0155 -1.04532e-21)
(0.0453175 -0.0153433 0)
(0.045729 -0.0151739 0)
(0.0461365 -0.0149917 0)
(0.0465394 -0.0147971 -7.62223e-22)
(0.0469372 -0.0145903 1.02257e-21)
(0.0473296 -0.0143715 5.32967e-22)
(0.047716 -0.0141409 0)
(0.0480961 -0.013899 0)
(0.0484696 -0.013646 0)
(0.0488361 -0.0133823 -1.7259e-21)
(0.0491953 -0.0131083 2.0885e-21)
(0.049547 -0.0128245 -1.06498e-21)
(0.0498911 -0.0125312 -7.55671e-22)
(0.0502273 -0.0122288 7.92016e-22)
(0.0505557 -0.011918 -7.92252e-22)
(0.0508761 -0.011599 4.29563e-22)
(0.0511887 -0.0112724 -8.64234e-22)
(0.0514935 -0.0109385 4.11688e-22)
(0.0517907 -0.0105976 8.93682e-22)