/*--------------------------------*- C++ -*----------------------------------*\
| =========                 |                                                 |
| \\      /  F ield         | OpenFOAM: The Open Source CFD Toolbox           |
|  \\    /   O peration     | Version:  2312                                  |
|   \\  /    A nd           | Website:  www.openfoam.com                      |
|    \\/     M anipulation  |                                                 |
\*---------------------------------------------------------------------------*/
FoamFile
{
    version     2.0;
    format      ascii;
    arch        "LSB;label=32;scalar=64";
    class       volScalarField;
    location    "1900";
    object      epsilon;
}
// * * * * * * * * * * * * * * * * * * * * * * * * * * * * * * * * * * * * * //

dimensions      [0 2 -3 0 0 0 0];

internalField   nonuniform List<scalar> 
76025
(
0.000254646
0.000253608
0.000252841
0.000252299
0.000252016
0.000251693
0.000251648
0.000251324
0.000250598
0.00024972
0.000248763
0.00024798
0.000247053
0.000246387
0.000245818
0.000245706
0.000245204
0.000244509
0.000243838
0.000243877
0.000243273
0.000242413
0.000241356
0.000240262
0.000240251
0.000239676
0.000239818
0.000239537
0.000239221
0.000239365
0.000239105
0.000238826
0.000238781
0.000238671
0.000238924
0.000239126
0.000240032
0.000240972
0.00024146
0.000241889
0.000242805
0.00024396
0.000245918
0.000247922
0.00025029
0.00025303
0.000256174
0.000259566
0.00026372
0.000267565
0.000272081
0.000275961
0.000281073
0.000284286
0.000290338
0.000293481
0.000299773
0.000302965
0.000309969
0.000313769
0.000321994
0.000327268
0.000339263
0.000346681
0.000360856
0.000373503
0.000388164
0.000411958
0.000426651
0.000257372
0.000256851
0.000256069
0.000255259
0.000254475
0.000253775
0.000253323
0.000252999
0.000252455
0.000251949
0.000251232
0.000250688
0.000249975
0.00024948
0.000248714
0.000248288
0.000247702
0.000247626
0.000247558
0.00024747
0.000247019
0.000247166
0.000246856
0.000246404
0.000246442
0.000246383
0.000246464
0.000246493
0.000246094
0.000246157
0.00024637
0.000246888
0.000247988
0.000247985
0.000248194
0.000248351
0.000249008
0.000249886
0.00025097
0.000252106
0.000253455
0.000255009
0.000256708
0.000258675
0.000260768
0.000263196
0.000265925
0.000269012
0.000272624
0.000276
0.000279876
0.000283202
0.000287503
0.000290963
0.000296317
0.000300194
0.000307123
0.000311387
0.000319902
0.000325175
0.000336708
0.000344228
0.000359186
0.000367588
0.000386024
0.000397017
0.000422625
0.000438827
0.000473342
0.000259544
0.00025921
0.000258833
0.000258452
0.000257975
0.000257464
0.000256804
0.000256272
0.000255778
0.000255351
0.000254847
0.000254331
0.000253776
0.000253225
0.000252751
0.000252144
0.000251979
0.000251527
0.000251662
0.000251468
0.00025178
0.000251476
0.000251857
0.000252103
0.000251777
0.000252363
0.000252057
0.000252352
0.000252814
0.000253149
0.000254515
0.000255093
0.000254832
0.000254979
0.000255586
0.000256806
0.000258754
0.000261497
0.000262801
0.000262716
0.000263386
0.000265217
0.000267302
0.000269975
0.000272369
0.00027504
0.000277867
0.00028103
0.000284647
0.00028787
0.000291681
0.000294847
0.000299797
0.000303816
0.000310351
0.000315113
0.000323049
0.000328329
0.000338397
0.000345469
0.000359074
0.000367813
0.00038364
0.000392873
0.000412455
0.000425408
0.000452517
0.000475013
0.000516538
0.000263643
0.000263389
0.000262942
0.00026253
0.000262126
0.000261673
0.000261166
0.000260782
0.000260335
0.000259934
0.00025985
0.000259792
0.000259739
0.000259657
0.000259241
0.000259243
0.000259234
0.000259196
0.000259085
0.000259098
0.000259125
0.000259265
0.000259418
0.000259109
0.000259158
0.000259211
0.000260406
0.000260892
0.000260949
0.000261092
0.000261351
0.000262043
0.000262905
0.000263743
0.000265332
0.000267564
0.000268835
0.000270419
0.000271723
0.000272799
0.000274805
0.000279009
0.00028179
0.000284481
0.000285252
0.000286985
0.000289074
0.000291569
0.000294479
0.000297609
0.000302149
0.000306788
0.000313521
0.000319135
0.000326942
0.000332633
0.000341649
0.000348041
0.000359765
0.00036847
0.000383716
0.000393181
0.000410278
0.000420641
0.000443199
0.000458705
0.000490702
0.000521697
0.000563368
0.000268458
0.000268502
0.000268309
0.000268199
0.000268109
0.000268107
0.000267738
0.000267045
0.000267016
0.000266522
0.000266577
0.00026657
0.000266363
0.000266349
0.000266311
0.000266421
0.000266594
0.0002667
0.000267334
0.000267025
0.000267632
0.000267733
0.000267848
0.000268733
0.000269036
0.000268751
0.000269003
0.000270038
0.000271784
0.000272494
0.000272201
0.000272445
0.000273916
0.00027532
0.00027659
0.000277738
0.000278741
0.000280065
0.000281685
0.000283562
0.000286236
0.000289511
0.000292317
0.000295819
0.000302515
0.000305867
0.000308337
0.0003112
0.00031417
0.000317414
0.000322195
0.000327129
0.000333803
0.000339163
0.000346625
0.000352687
0.000362729
0.000370947
0.00038544
0.000396919
0.000414414
0.000425665
0.000444434
0.000456975
0.00048267
0.000501506
0.000541796
0.000573336
0.000632198
0.000275635
0.000276001
0.000275992
0.000275744
0.000275773
0.000275723
0.000276182
0.000276251
0.000275933
0.000275983
0.000275774
0.000276141
0.000275726
0.000276035
0.000276256
0.000276019
0.000275838
0.000275946
0.000276214
0.000276343
0.000276722
0.000277343
0.00027796
0.000278724
0.00027932
0.000279614
0.000279995
0.00028067
0.000281764
0.000282728
0.00028391
0.000285898
0.000288917
0.000290323
0.000289975
0.000290926
0.000291848
0.000293607
0.000295439
0.000297735
0.000300325
0.0003041
0.000306677
0.000312201
0.000316976
0.000322669
0.000330468
0.000340039
0.000344039
0.000343699
0.00034626
0.000349834
0.000355331
0.000360635
0.000369182
0.000377649
0.000390575
0.000402188
0.000419714
0.000433381
0.000451387
0.000464293
0.000482775
0.00049954
0.000526168
0.000553565
0.000597488
0.000642507
0.000707594
0.00028353
0.000283436
0.000283456
0.000283505
0.000283622
0.000283742
0.000283977
0.00028442
0.000284768
0.00028519
0.000285355
0.000285603
0.000285893
0.000286138
0.000286558
0.000286793
0.00028772
0.000287533
0.000288153
0.0002883
0.000288961
0.000289448
0.000290132
0.000290722
0.000291659
0.000293688
0.000294695
0.000295378
0.000296229
0.000296923
0.000298687
0.000299983
0.000302852
0.000304832
0.000307647
0.000312125
0.000314172
0.000313885
0.000314624
0.000315656
0.000319004
0.000322499
0.000326371
0.000332624
0.000336963
0.000343952
0.000350935
0.000355694
0.00035908
0.000364587
0.000370756
0.000376031
0.000382393
0.000389268
0.000400117
0.000410751
0.000425972
0.000439329
0.000458334
0.000472179
0.000490103
0.000505572
0.000523971
0.000549644
0.000577457
0.000618654
0.000670377
0.000725466
0.000816268
0.000295241
0.00029502
0.000294888
0.000295238
0.000295446
0.00029638
0.000296667
0.000296748
0.000297002
0.000297242
0.000297692
0.000298133
0.000298686
0.000299561
0.00029997
0.000301919
0.000302673
0.000303478
0.00030406
0.000303487
0.000303419
0.000304469
0.00030528
0.000307174
0.000308686
0.00030982
0.000312869
0.000312992
0.000314852
0.000314035
0.000314101
0.000315047
0.000317132
0.000319406
0.000322262
0.000324517
0.000327525
0.000329196
0.000332317
0.000334991
0.000339074
0.000343605
0.000348497
0.000354393
0.000361902
0.000367363
0.000376716
0.00038422
0.000393344
0.000404237
0.00041887
0.00042495
0.000423796
0.000427959
0.000439024
0.000449809
0.000466731
0.000481577
0.000502548
0.000516974
0.000537703
0.000555806
0.0005774
0.000614049
0.000642825
0.000708662
0.000754976
0.000849974
0.00094508
0.000308255
0.000307924
0.000308514
0.000308651
0.000308379
0.000308492
0.000309143
0.000309514
0.000311306
0.000311971
0.000312731
0.00031318
0.000312454
0.000312412
0.000313045
0.000314025
0.000315317
0.000316652
0.000317952
0.000319476
0.000320337
0.000322348
0.000324048
0.00032508
0.000328279
0.00032946
0.000328544
0.00032862
0.000329742
0.000331527
0.000334263
0.000338331
0.000343859
0.000345044
0.00034562
0.000346804
0.000349998
0.00035213
0.000357349
0.000361055
0.000367675
0.000373747
0.000380261
0.0003897
0.00039542
0.000405252
0.000414148
0.000420026
0.000434788
0.000440961
0.000440033
0.000445083
0.000456493
0.000469684
0.000486733
0.000501872
0.000522548
0.000542736
0.000566789
0.000583341
0.000607577
0.000624217
0.000656024
0.000694623
0.000738569
0.00081834
0.00087777
0.00101069
0.00111505
0.000327014
0.000327481
0.000327677
0.000327901
0.00032785
0.000328799
0.000328966
0.000328322
0.000328415
0.000328859
0.000330102
0.000331274
0.000332123
0.000333032
0.000335294
0.000336203
0.000336639
0.000336319
0.00033711
0.000339324
0.000340812
0.000343337
0.000346333
0.000347781
0.000352395
0.00035455
0.000356788
0.000358486
0.000357047
0.000357932
0.000360355
0.000363191
0.000366333
0.000369467
0.000372091
0.000376136
0.000379619
0.000384518
0.000390269
0.000394949
0.000404387
0.000412496
0.000418266
0.000423495
0.00042802
0.00043332
0.000439733
0.000447289
0.000456818
0.000467565
0.000481107
0.000495995
0.000512535
0.000529756
0.000547986
0.000565902
0.000589259
0.00061286
0.000636945
0.000656205
0.000682666
0.000703139
0.000750333
0.000792088
0.000868176
0.000956775
0.00104776
0.00122371
0.0013307
0.000343536
0.000344495
0.000345371
0.000346412
0.000347752
0.000349347
0.000350846
0.00035154
0.000353675
0.000354193
0.000353219
0.000353411
0.000354375
0.000356512
0.000359049
0.000361337
0.000361259
0.000361381
0.000361471
0.000362892
0.000364132
0.000366395
0.000368733
0.000370771
0.000373944
0.000376691
0.000380383
0.00038339
0.000386573
0.000391086
0.000393878
0.000400615
0.000405028
0.000411406
0.000420585
0.000424679
0.000423409
0.000425211
0.000429242
0.000434516
0.00044073
0.000448454
0.000456253
0.000464509
0.00047309
0.000481593
0.000491185
0.000501838
0.000513703
0.000526949
0.000542035
0.000557398
0.000573713
0.000591439
0.000607825
0.000630444
0.000652844
0.000675936
0.00069954
0.000717318
0.000759585
0.000793552
0.00087134
0.000930779
0.0010456
0.00114229
0.00130159
0.00148024
0.00167402
0.000372606
0.000373454
0.000374571
0.000375272
0.000374966
0.000374668
0.000375424
0.000376473
0.000378646
0.000380661
0.000382968
0.000384989
0.000386068
0.000389817
0.000391081
0.000390537
0.000390629
0.000391703
0.00039344
0.000396224
0.000398722
0.000401375
0.000405696
0.00041208
0.000414647
0.000415275
0.000415089
0.000416127
0.000420701
0.000424366
0.00043104
0.000436028
0.000443914
0.000452885
0.000459195
0.000467276
0.000479493
0.000477331
0.000489161
0.000486258
0.000487175
0.000493212
0.000500868
0.000511142
0.00052192
0.000535378
0.00054814
0.000565614
0.00057979
0.00059862
0.000616557
0.000631549
0.000653323
0.00067044
0.000689268
0.000699318
0.000723475
0.000742134
0.000785146
0.000822805
0.000892833
0.000952057
0.00105206
0.00113792
0.00128576
0.0014126
0.00163836
0.00182729
0.0021595
0.000401748
0.000403094
0.000404389
0.000405832
0.000407145
0.000408261
0.000410599
0.000414432
0.000415978
0.000416479
0.000415935
0.000419656
0.000422383
0.000424809
0.000430252
0.000432036
0.000430922
0.000430708
0.000432177
0.00043621
0.000439582
0.00044419
0.000450494
0.000453244
0.00046287
0.000466989
0.000470771
0.000473662
0.000471817
0.00047222
0.000476707
0.000480761
0.000486739
0.000491925
0.000498394
0.000504128
0.000511462
0.000518399
0.000525746
0.000536246
0.000544177
0.000558582
0.000568814
0.000586681
0.000597979
0.000619577
0.000633435
0.000660682
0.000677606
0.00070729
0.000734219
0.000750746
0.000792439
0.000807056
0.000799281
0.000806808
0.000841083
0.000878905
0.000941038
0.000999729
0.00108907
0.00117348
0.0013014
0.00142641
0.00161162
0.00179745
0.00206807
0.00233127
0.00273761
0.000442292
0.000444659
0.000447246
0.00044956
0.000452057
0.000454431
0.000457494
0.000460263
0.000463197
0.000467424
0.000473456
0.000475833
0.000474899
0.00047606
0.00047819
0.000482058
0.000484935
0.000489539
0.000496979
0.00049986
0.000499069
0.000498827
0.000501851
0.000506418
0.000512104
0.000518601
0.000526764
0.000532565
0.000540696
0.000553664
0.000552613
0.000560956
0.000559559
0.000561979
0.000567851
0.000574941
0.000584351
0.000593909
0.000605502
0.000616975
0.000628955
0.000643391
0.000655386
0.000669249
0.000683614
0.000697775
0.000717283
0.000736664
0.000757295
0.000780631
0.000820374
0.000849907
0.000875339
0.000886179
0.000919712
0.000959926
0.0010174
0.00107821
0.00116107
0.00124708
0.00136454
0.00148687
0.00165363
0.00182902
0.00206399
0.0023166
0.00263994
0.00299954
0.00344141
0.000493754
0.000496111
0.000498639
0.000501131
0.000503949
0.00050622
0.000508952
0.000511355
0.000513774
0.000517197
0.000520585
0.000524646
0.000528914
0.000532676
0.000538218
0.000542539
0.000549734
0.000554115
0.000563995
0.000571139
0.000574339
0.000584779
0.000581476
0.000582412
0.000582338
0.000585438
0.000592806
0.000598929
0.000608586
0.000616239
0.000627143
0.000634121
0.000645731
0.000655661
0.000667826
0.000685217
0.000698259
0.000716668
0.000736989
0.000748099
0.000781407
0.000796837
0.000808726
0.000795271
0.000793745
0.000802833
0.000819232
0.000839626
0.000864874
0.000892947
0.00092582
0.000962237
0.00100746
0.00105857
0.00112102
0.00118916
0.00127315
0.00136444
0.00147892
0.00160295
0.0017606
0.00193053
0.00214828
0.00238121
0.00268006
0.00299851
0.00339633
0.00383918
0.0043172
0.000565402
0.000568591
0.000572027
0.000576131
0.000579366
0.000584661
0.000589713
0.000594018
0.000602298
0.000606556
0.000614527
0.000614295
0.000614017
0.000617994
0.000623259
0.000631425
0.000639083
0.000648732
0.000656637
0.000666746
0.000674756
0.000683058
0.000694445
0.000710358
0.000707149
0.000722299
0.000719143
0.000719494
0.000727877
0.000734193
0.000749702
0.000759312
0.000778978
0.000790718
0.000814743
0.000828307
0.000856786
0.000871136
0.00090686
0.000921844
0.000938875
0.000952924
0.000935963
0.000933462
0.000945887
0.000967265
0.000995603
0.00102897
0.00106819
0.00111225
0.00116344
0.00122062
0.00128734
0.0013617
0.00144921
0.00154667
0.00166256
0.00179123
0.00194572
0.00211636
0.00232296
0.00254967
0.00282596
0.00312547
0.00349464
0.00388131
0.00437589
0.00484956
0.00551189
0.000666094
0.000670227
0.000674597
0.00067995
0.000684547
0.000691403
0.000697447
0.000704639
0.00071277
0.000718618
0.000730377
0.000738996
0.000747416
0.000752044
0.000764836
0.000763903
0.000762402
0.000767262
0.000772773
0.000783145
0.000791962
0.000804418
0.000814758
0.000829884
0.000839342
0.000854919
0.000864751
0.000882904
0.000894271
0.000917902
0.00093153
0.000961333
0.000976543
0.00101303
0.00102927
0.00104696
0.0010295
0.001069
0.00105477
0.00105593
0.00106977
0.00109111
0.0011178
0.00114945
0.00118632
0.00122816
0.00127564
0.00132857
0.00138836
0.00145486
0.00153028
0.00161421
0.00170994
0.00181649
0.0019389
0.00207493
0.00223255
0.00240698
0.00261106
0.00283552
0.00310052
0.00339001
0.00373327
0.00410614
0.00454616
0.0050221
0.00557623
0.00616923
0.00686368
0.000809077
0.000814575
0.000820885
0.000827319
0.00083467
0.000842115
0.000851075
0.000859061
0.000869898
0.000877982
0.000890957
0.000900563
0.000914936
0.00092422
0.000940622
0.000949731
0.000968507
0.000978122
0.00100289
0.00101402
0.001027
0.00103801
0.00103448
0.00103257
0.00103557
0.00104725
0.00105841
0.0010736
0.00108758
0.00110621
0.00112302
0.00114401
0.00116261
0.00118457
0.00120482
0.0012286
0.0012525
0.00128067
0.00131133
0.00134568
0.00138436
0.00142755
0.0014756
0.00152876
0.00158765
0.00165258
0.00172452
0.00180377
0.00189158
0.00198821
0.00209577
0.00221428
0.00234692
0.00249321
0.00265806
0.00283981
0.00304643
0.00327348
0.00353446
0.00381918
0.00415029
0.00450756
0.00492698
0.00537321
0.00589905
0.00645104
0.00709597
0.00777789
0.00853343
0.00102419
0.001032
0.00104034
0.00104935
0.001059
0.00106945
0.00108053
0.00109248
0.00110498
0.00111852
0.00113231
0.0011479
0.00116288
0.00118059
0.00119645
0.00121685
0.0012335
0.00125769
0.00127511
0.00130467
0.00132223
0.0013599
0.00137785
0.00142553
0.00144681
0.00146993
0.00148841
0.00146646
0.00145899
0.00146788
0.00148757
0.00151315
0.0015444
0.00157926
0.00161835
0.00166039
0.00170607
0.00175542
0.00180885
0.00186671
0.00192942
0.00199738
0.00207108
0.00215097
0.00223774
0.00233191
0.00243447
0.00254596
0.00266795
0.00280057
0.00294594
0.00310451
0.00327949
0.00347088
0.00368377
0.00391688
0.00417859
0.00446436
0.00478883
0.00514002
0.00554393
0.00597446
0.00647657
0.00699914
0.00762029
0.00824377
0.00900924
0.00974712
0.0106732
0.00136739
0.00137959
0.00139227
0.00140599
0.00142062
0.00143648
0.00145314
0.00147121
0.00148993
0.00151032
0.00153106
0.00155391
0.00157661
0.00160194
0.00162643
0.00165426
0.00168048
0.00171077
0.00173837
0.00177078
0.0017994
0.00183326
0.00186224
0.00189556
0.00192412
0.00195644
0.00198903
0.00202255
0.00205933
0.00210029
0.00214568
0.00219519
0.0022488
0.00230633
0.00236788
0.0024335
0.00250337
0.00257778
0.00265703
0.00274143
0.00283141
0.00292738
0.0030299
0.00313952
0.003257
0.00338302
0.00351869
0.00366483
0.00382307
0.00399435
0.00418102
0.00438332
0.00460482
0.00484581
0.00511187
0.00540171
0.00572446
0.00607471
0.00646901
0.0068918
0.00737471
0.00788246
0.008473
0.00907594
0.00980102
0.0105048
0.0114189
0.0122275
0.0134437
0.00202482
0.0020493
0.00207446
0.00210063
0.00212774
0.00215606
0.00218543
0.0022163
0.00224833
0.00228202
0.00231684
0.00235336
0.00239094
0.0024301
0.00247021
0.0025116
0.00255398
0.0025971
0.00264159
0.00268601
0.00273256
0.00277953
0.00282993
0.00288183
0.00293821
0.00299523
0.0030559
0.00311831
0.00318317
0.00325095
0.00332194
0.0033963
0.0034742
0.00355579
0.00364127
0.00373086
0.00382484
0.0039236
0.00402752
0.00413703
0.00425263
0.00437491
0.00450455
0.00464232
0.00478912
0.00494594
0.00511406
0.00529469
0.00548974
0.00570053
0.00592976
0.00617894
0.00645075
0.0067454
0.00706931
0.00742028
0.00780892
0.00822777
0.00869658
0.00919325
0.00976059
0.0103458
0.011035
0.0117213
0.0125805
0.013387
0.0145374
0.0154913
0.0173286
0.00335136
0.00339695
0.00344359
0.00349178
0.00354137
0.00359227
0.00364452
0.00369811
0.00375311
0.00380939
0.00386706
0.00392586
0.00398603
0.00404709
0.00410945
0.00417244
0.00423674
0.00430171
0.004368
0.00443544
0.0045043
0.0045743
0.00464582
0.00471872
0.00479337
0.00486973
0.00494809
0.00502856
0.0051114
0.00519686
0.00528516
0.00537655
0.00547125
0.00556953
0.00567167
0.00577802
0.00588896
0.00600506
0.00612678
0.0062548
0.00638977
0.00653248
0.00668382
0.00684484
0.00701669
0.00720076
0.00739838
0.0076113
0.00784167
0.00809127
0.00836328
0.00865927
0.00898337
0.0093337
0.0097177
0.0101315
0.0105875
0.011076
0.0116196
0.0121901
0.0128466
0.0135139
0.0143285
0.0151278
0.0162163
0.0172357
0.0188793
0.0204233
0.0237425
0.00592846
0.00600327
0.00607804
0.00615319
0.00622864
0.00630431
0.00638025
0.00645645
0.0065329
0.00660957
0.00668646
0.00676355
0.00684089
0.00691839
0.00699611
0.00707399
0.0071522
0.00723085
0.00730985
0.00738934
0.00746922
0.00754952
0.00763035
0.00771169
0.00779385
0.007877
0.00796145
0.00804749
0.00813547
0.00822575
0.00831872
0.00841473
0.00851414
0.00861729
0.00872465
0.00883663
0.00895381
0.00907695
0.00920647
0.00934372
0.00948886
0.00964312
0.00980761
0.00998404
0.0101739
0.0103787
0.0105992
0.0108386
0.0110988
0.0113839
0.0116954
0.0120373
0.0124101
0.0128146
0.0132558
0.0137308
0.0142487
0.0148053
0.015419
0.0160766
0.0168396
0.0176532
0.0186917
0.0197894
0.0214102
0.0231576
0.0262967
0.0305173
0.0397752
0.0104317
0.010521
0.0106089
0.0106962
0.0107828
0.0108683
0.0109528
0.0110364
0.0111189
0.0112002
0.0112806
0.0113599
0.0114382
0.0115155
0.0115919
0.0116675
0.011743
0.0118193
0.0118933
0.0119671
0.0120391
0.0121103
0.0121812
0.0122509
0.0123213
0.0123921
0.0124637
0.0125367
0.0126116
0.0126885
0.0127685
0.0128514
0.0129383
0.0130289
0.0131252
0.0132267
0.0133346
0.013449
0.0135706
0.0137026
0.0138422
0.0139938
0.014158
0.0143403
0.0145403
0.0147572
0.0149901
0.0152484
0.015533
0.015849
0.0161964
0.0165797
0.0169946
0.0174503
0.0179402
0.0184778
0.0190517
0.0197026
0.0204236
0.0212837
0.0222939
0.0235767
0.0252347
0.0274546
0.0307553
0.0358775
0.0449633
0.0615308
0.0930144
0.0173447
0.0174265
0.0175042
0.0175794
0.0176527
0.0177234
0.017792
0.0178589
0.0179235
0.0179858
0.018047
0.018106
0.0181635
0.0182198
0.0182761
0.0183309
0.0183855
0.0184403
0.0184882
0.0185379
0.018584
0.018622
0.0186624
0.0186979
0.018734
0.0187739
0.0188127
0.0188625
0.0189149
0.0189669
0.0190255
0.0190795
0.0191406
0.0192017
0.0192857
0.0193719
0.01947
0.0195652
0.0196687
0.0197889
0.0199185
0.0200667
0.0202233
0.0204375
0.0206523
0.0208727
0.0211083
0.021377
0.0216811
0.0220228
0.0224012
0.0228189
0.0232753
0.0237866
0.0243394
0.0249917
0.0256962
0.0266554
0.0277699
0.0293585
0.0313147
0.03436
0.0385822
0.0454358
0.0564489
0.077041
0.109614
0.176298
0.27861
0.0276264
0.0276596
0.0276891
0.0277204
0.0277559
0.0277839
0.02783
0.0278756
0.0279145
0.0279479
0.0279822
0.0280034
0.0280388
0.0280813
0.0281332
0.0281595
0.0282256
0.0282896
0.0283106
0.028441
0.0284796
0.0283724
0.0284466
0.0283434
0.0282656
0.0282529
0.0282001
0.028376
0.0284451
0.0284946
0.0285363
0.0284018
0.0283498
0.028272
0.0285186
0.0286174
0.0287094
0.0285955
0.0285403
0.0285792
0.0286371
0.028739
0.0288135
0.0293766
0.0294607
0.0296148
0.0298241
0.0301105
0.0304736
0.0309045
0.0313898
0.0319448
0.0325707
0.0332885
0.0341753
0.0352177
0.0366488
0.0389853
0.0420393
0.0467247
0.0534084
0.0642074
0.0807054
0.105204
0.154809
0.229422
0.328079
0.434103
0.466332
0.0415253
0.0415743
0.0417153
0.0417657
0.0417847
0.0416753
0.0417713
0.0416915
0.0416624
0.0417977
0.0418386
0.0418483
0.0417315
0.0416835
0.0418142
0.0418302
0.0416829
0.0417983
0.0417242
0.0416857
0.0418419
0.0418959
0.0419014
0.0417066
0.0416335
0.0416377
0.0416263
0.0418231
0.0418907
0.0419295
0.0417404
0.0417501
0.0417364
0.0420101
0.0421301
0.0422207
0.0419595
0.0418736
0.0419104
0.0424329
0.042682
0.04293
0.0431531
0.0434493
0.0438305
0.0443073
0.0448834
0.0455234
0.0462282
0.0469885
0.0478359
0.0488029
0.0500531
0.051544
0.0539309
0.0569892
0.0644046
0.074732
0.0882052
0.106861
0.134539
0.173144
0.230236
0.307105
0.389947
0.460498
0.457587
0.380717
0.251421
0.0742236
0.0742012
0.0741743
0.0742531
0.0745148
0.0746258
0.0746973
0.0744689
0.0743583
0.0746012
0.0746424
0.0743879
0.0742643
0.0744939
0.0745212
0.0741773
0.0742955
0.0740488
0.0738929
0.0740152
0.0736869
0.0738085
0.0734432
0.0735077
0.0731276
0.073182
0.0731405
0.0730598
0.0729347
0.0727725
0.0725699
0.0723408
0.0720853
0.0718779
0.071782
0.0717703
0.0711874
0.0717523
0.0711429
0.072304
0.0718756
0.0734274
0.0734038
0.0737618
0.0744973
0.0755202
0.0768932
0.0785648
0.0807456
0.0834668
0.08702
0.0915176
0.0975421
0.105139
0.115657
0.128635
0.142189
0.160239
0.18512
0.22008
0.269048
0.325109
0.397404
0.413062
0.355959
0.240961
0.174864
0.132131
0.101781
0.238182
0.240151
0.241021
0.242405
0.243005
0.245577
0.246374
0.24732
0.248038
0.247731
0.247761
0.249295
0.250448
0.251209
0.25096
0.251818
0.251846
0.254042
0.254514
0.253946
0.253418
0.255228
0.253869
0.255354
0.255755
0.254632
0.253064
0.251389
0.249682
0.247971
0.246246
0.244483
0.242667
0.240782
0.238833
0.236813
0.234731
0.232569
0.23035
0.228045
0.225667
0.223188
0.220596
0.21785
0.214934
0.211765
0.208331
0.204504
0.200264
0.195465
0.189996
0.183739
0.176346
0.167814
0.157867
0.145488
0.13042
0.111813
0.0872532
0.0599601
0.0536603
0.0729136
0.094413
0.10718
0.110698
0.10467
0.0953683
0.0895494
0.0883778
0.000251597
0.000252007
0.000252313
0.00025255
0.000253152
0.000253668
0.000254199
0.000254645
0.000255159
0.000255747
0.000256264
0.000256949
0.000258201
0.000259608
0.000260285
0.000260657
0.000261547
0.000262285
0.00026269
0.000263085
0.000263652
0.000263751
0.000264234
0.000264733
0.000265442
0.000266312
0.000267377
0.000267963
0.000268148
0.000268236
0.000269021
0.000270037
0.000271512
0.000270895
0.000270246
0.000270047
0.000270007
0.000269739
0.000269096
0.000268736
0.000267951
0.000267706
0.000267439
0.000266175
0.00026522
0.000264018
0.000263513
0.000262411
0.000261326
0.000259901
0.000259597
0.000259124
0.000258842
0.000258456
0.000257946
0.000257665
0.000257138
0.000256471
0.000255434
0.000253008
0.000253271
0.000253497
0.000253772
0.000254223
0.000254645
0.00025515
0.000255513
0.000255971
0.000256614
0.000257165
0.000258457
0.000259665
0.000260368
0.000260719
0.00026105
0.000262055
0.000262629
0.000262961
0.000263395
0.000263941
0.000264095
0.000264602
0.000265195
0.000265865
0.000266704
0.000267804
0.000268401
0.000268611
0.000268692
0.000269499
0.000270478
0.000271947
0.00027168
0.00027105
0.000270745
0.000270846
0.00027067
0.000270117
0.000269749
0.000268986
0.000268655
0.000268466
0.000267935
0.000267039
0.000265892
0.000265126
0.000264254
0.000263491
0.000262472
0.000261205
0.000260604
0.000259832
0.000259522
0.000259128
0.000258827
0.000258503
0.000258206
0.00025782
0.000255049
0.000255248
0.00025541
0.00025566
0.000256069
0.000256427
0.000256806
0.000257192
0.000257788
0.000258494
0.00025927
0.000260358
0.000260948
0.000261302
0.000261549
0.000262057
0.000263034
0.000263429
0.000263686
0.000264208
0.00026465
0.000264937
0.000265506
0.000266196
0.000266847
0.000267722
0.000268807
0.000269465
0.000269672
0.000269812
0.00027062
0.000271549
0.000273085
0.000272986
0.000272484
0.000272106
0.00027214
0.000272135
0.000271801
0.000271431
0.000270848
0.000270176
0.000270206
0.000269973
0.000269389
0.00026846
0.00026768
0.000266826
0.000266089
0.000265438
0.000264531
0.000263655
0.000262712
0.000261936
0.000261388
0.000260868
0.000260498
0.000260132
0.000259858
0.000257318
0.000257681
0.000258082
0.000258555
0.000258863
0.000259243
0.000259666
0.000260105
0.000260662
0.000261228
0.000261823
0.000262347
0.000262642
0.000262889
0.000263241
0.000264047
0.00026461
0.0002649
0.000265124
0.000265756
0.000266274
0.000266631
0.000267247
0.000267991
0.00026859
0.000269488
0.000270563
0.000271276
0.000271506
0.000271699
0.00027251
0.000273421
0.000274857
0.000275135
0.000274754
0.000274425
0.000274491
0.000274446
0.000274295
0.000274011
0.000273497
0.000272746
0.000272755
0.000272707
0.000272397
0.000271678
0.000271099
0.00027038
0.000269599
0.000268975
0.000268328
0.000267647
0.00026692
0.000266145
0.000265403
0.000264793
0.000264012
0.000263871
0.000263585
0.000261206
0.000261566
0.000261881
0.00026212
0.000262289
0.000262467
0.000262433
0.000263051
0.00026354
0.000263939
0.000264342
0.000264756
0.000265024
0.000265353
0.000265891
0.000266462
0.00026682
0.00026705
0.000267417
0.000268206
0.000268714
0.000269123
0.000269757
0.000270509
0.000271065
0.000272008
0.000273069
0.000273832
0.000274103
0.000274345
0.000275176
0.000276041
0.00027757
0.000277878
0.000277748
0.000277436
0.000277438
0.000277759
0.000277615
0.000277538
0.000277284
0.000276535
0.000276212
0.000276215
0.000276095
0.000275582
0.000274916
0.000274649
0.000274158
0.000273498
0.00027289
0.000272388
0.000271891
0.000271384
0.000270787
0.000270222
0.000269429
0.00026881
0.000268471
0.000265131
0.000265376
0.000265654
0.000265931
0.000266143
0.000266148
0.000266074
0.000266315
0.000267063
0.000267479
0.00026782
0.000268112
0.000268398
0.000268809
0.000269274
0.000269613
0.00026989
0.000270194
0.000270831
0.000271603
0.000272111
0.00027257
0.000273239
0.000273955
0.000274507
0.000275513
0.000276574
0.000277388
0.000277713
0.000278011
0.000278882
0.000279755
0.000281178
0.000282013
0.000281847
0.000281582
0.000281539
0.00028186
0.000282309
0.000282124
0.000282027
0.00028152
0.000281048
0.00028119
0.000281243
0.000281097
0.000280462
0.000279811
0.000279859
0.000279702
0.000279185
0.000278466
0.00027776
0.0002772
0.000276642
0.000276573
0.000276282
0.00027613
0.000275867
0.000270193
0.000270349
0.000270447
0.00027073
0.000270686
0.000270601
0.000271054
0.000271258
0.000271611
0.00027185
0.00027216
0.000272452
0.00027279
0.000273166
0.00027351
0.000273803
0.000274133
0.000274668
0.000275481
0.000276145
0.000276656
0.000277154
0.000277822
0.00027846
0.000279025
0.000280103
0.000281172
0.000282034
0.000282421
0.000282785
0.000283712
0.000284587
0.000286096
0.000286778
0.00028729
0.000287007
0.000286922
0.000287145
0.000287634
0.000288358
0.000288203
0.000287885
0.000287277
0.000286979
0.000287395
0.000287407
0.000287419
0.000287073
0.000286939
0.000286937
0.000286883
0.000286531
0.000286383
0.000286064
0.000285122
0.000284545
0.000284454
0.000284272
0.000283894
0.00027552
0.000275815
0.000275962
0.000276223
0.000276472
0.000276593
0.000276893
0.000277184
0.000277461
0.000277716
0.000277983
0.000278279
0.000278577
0.00027888
0.000279182
0.000279521
0.000280009
0.000280731
0.000281465
0.000282058
0.0002826
0.000283152
0.000283767
0.000284361
0.000284993
0.000286154
0.00028726
0.000288175
0.00028864
0.000289088
0.000290092
0.000291013
0.000292466
0.00029363
0.000293786
0.000294092
0.000293966
0.000294359
0.000294654
0.000295279
0.000296427
0.000296373
0.000295825
0.000295797
0.000295804
0.000295807
0.000295957
0.000296248
0.000296773
0.000296718
0.000296719
0.000296109
0.000296268
0.000296224
0.000295637
0.000295191
0.00029529
0.00029537
0.000295039
0.000282507
0.000282725
0.00028294
0.000283328
0.000283417
0.000283589
0.000283833
0.000284132
0.000284636
0.000284794
0.000285252
0.000285534
0.000285964
0.000286391
0.000286763
0.000287203
0.00028779
0.00028846
0.000289081
0.000289634
0.000290174
0.000290723
0.000291297
0.0002919
0.000292611
0.000293878
0.00029501
0.000295986
0.000296536
0.000297081
0.000298179
0.000299172
0.000300655
0.000301808
0.000302974
0.000302913
0.000302939
0.000303202
0.000303976
0.000304354
0.000305129
0.000306146
0.000306711
0.000306554
0.000306557
0.000306153
0.000306033
0.000306326
0.000306915
0.000307008
0.000307553
0.000307945
0.000308732
0.000309085
0.000309881
0.000309818
0.00030999
0.000309037
0.000308903
0.000293172
0.000293332
0.000292997
0.000293037
0.000293055
0.000293435
0.000293493
0.00029397
0.000294089
0.000294171
0.000294705
0.000294842
0.000295465
0.000295788
0.000296364
0.000296827
0.000297503
0.000298064
0.000298699
0.000299225
0.000299791
0.000300354
0.000300946
0.000301621
0.000302473
0.000303864
0.00030505
0.000306113
0.000306776
0.00030745
0.000308672
0.000309779
0.000311284
0.000312698
0.00031355
0.000314914
0.000314523
0.000314828
0.000315361
0.000316466