/*--------------------------------*- C++ -*----------------------------------*\
| =========                 |                                                 |
| \\      /  F ield         | OpenFOAM: The Open Source CFD Toolbox           |
|  \\    /   O peration     | Version:  2312                                  |
|   \\  /    A nd           | Website:  www.openfoam.com                      |
|    \\/     M anipulation  |                                                 |
\*---------------------------------------------------------------------------*/
FoamFile
{
    version     2.0;
    format      ascii;
    arch        "LSB;label=32;scalar=64";
    class       volScalarField;
    location    "1900";
    object      k;
}
// * * * * * * * * * * * * * * * * * * * * * * * * * * * * * * * * * * * * * //

dimensions      [0 2 -2 0 0 0 0];

internalField   nonuniform List<scalar> 
76025
(
0.00194703
0.00194591
0.0019452
0.00194353
0.00194133
0.00194191
0.00194059
0.00193768
0.00193397
0.00192967
0.00192997
0.00193022
0.00192768
0.00192526
0.00192595
0.00192361
0.00192254
0.00191992
0.00191784
0.00191631
0.001917
0.00191487
0.00191454
0.00191411
0.00191408
0.00191334
0.00191234
0.00191158
0.00191142
0.0019146
0.00191397
0.0019136
0.00191501
0.00191562
0.00192139
0.00191883
0.00192405
0.00192295
0.00192609
0.00193056
0.00193806
0.00194707
0.00195942
0.0019716
0.00198551
0.0020009
0.00202042
0.00204142
0.00206651
0.0020914
0.00212017
0.00214733
0.00218283
0.00220596
0.00223311
0.00224484
0.00226722
0.00228293
0.00231842
0.00234568
0.00240081
0.00243853
0.00250764
0.00254791
0.00261896
0.00268136
0.00276561
0.00289602
0.00298443
0.00196198
0.00195898
0.00195601
0.00195288
0.0019547
0.00195462
0.00195199
0.00194935
0.00194712
0.00194357
0.00194414
0.00194455
0.0019423
0.00193925
0.00194174
0.00194076
0.00194266
0.00194038
0.00194152
0.00193954
0.00193961
0.00194006
0.00194292
0.00194395
0.00194384
0.00194796
0.00194681
0.00194569
0.00194629
0.00194784
0.00195022
0.00195388
0.00195795
0.00196216
0.0019731
0.00197859
0.00198227
0.00198608
0.0019907
0.00199935
0.00201271
0.00202453
0.00203581
0.00204378
0.00205308
0.00206533
0.00208185
0.00210069
0.00212102
0.00214189
0.00216509
0.00218806
0.00222015
0.00225065
0.00227392
0.00228883
0.00231433
0.0023381
0.00238558
0.00242841
0.00249786
0.00254649
0.00261778
0.00266016
0.00274709
0.00280779
0.00293931
0.00304074
0.00320938
0.00198386
0.00198057
0.00197705
0.00197396
0.00196963
0.00197057
0.00196793
0.00196691
0.00196621
0.00196786
0.00196832
0.00196734
0.00196665
0.00196616
0.00196654
0.0019668
0.0019701
0.00197093
0.00197027
0.00197412
0.00197536
0.00197476
0.00197965
0.00198122
0.00197885
0.00197942
0.00198091
0.00198487
0.00198847
0.00199345
0.00200318
0.00200746
0.00200747
0.00200859
0.00201223
0.00202263
0.00203061
0.00204226
0.00206027
0.00206834
0.00206631
0.00206987
0.00207991
0.00209052
0.00210438
0.0021209
0.00214056
0.00216054
0.00217961
0.00219868
0.00221879
0.00224029
0.00226498
0.00228881
0.00232107
0.00235348
0.00239595
0.00243729
0.00249733
0.00255284
0.00262719
0.00267679
0.00274706
0.00279314
0.00287908
0.00296129
0.00308718
0.00322898
0.00340723
0.00200959
0.00200961
0.0020075
0.00200524
0.00200427
0.0020014
0.00199917
0.00199718
0.00199437
0.00199558
0.00199441
0.00199422
0.00199439
0.00199495
0.00199606
0.00199645
0.00200102
0.00199939
0.0019984
0.00199867
0.00199945
0.00200212
0.00200603
0.00200864
0.0020158
0.00201922
0.00202292
0.00202612
0.00202447
0.00202653
0.00203248
0.00203688
0.00204218
0.00204691
0.00205239
0.00205905
0.00206882
0.00207602
0.00209015
0.00210327
0.00211713
0.00213629
0.00216212
0.00217426
0.00217267
0.00217967
0.00219324
0.00221268
0.00223523
0.00226321
0.00229102
0.00232044
0.00234981
0.00238085
0.00241461
0.00245135
0.00249538
0.00254621
0.00261024
0.00267679
0.00275425
0.00281012
0.00287891
0.00292897
0.00302663
0.00312607
0.00327241
0.00343946
0.00363926
0.00203522
0.00203703
0.00203679
0.00203912
0.00203954
0.00203994
0.00203995
0.00203952
0.00203885
0.00203697
0.0020376
0.00203583
0.00203658
0.00203508
0.00203552
0.00203627
0.00203834
0.00204024
0.00204182
0.00204474
0.0020482
0.00205183
0.00205489
0.00205799
0.00206155
0.00206539
0.00207268
0.00207698
0.00208219
0.00208612
0.0020824
0.00208184
0.00208492
0.00209001
0.00209705
0.00210507
0.00211549
0.00212649
0.00213892
0.0021532
0.00216526
0.00218003
0.00219303
0.00220939
0.00222488
0.00224633
0.00227181
0.00229892
0.00233045
0.00236526
0.00239575
0.00241963
0.00244165
0.00246979
0.00250389
0.00255144
0.00260444
0.00267049
0.00273762
0.00282204
0.0029014
0.00296791
0.00302843
0.0030946
0.003206
0.00332639
0.00350112
0.00368596
0.00392579
0.00207612
0.00207467
0.00207624
0.00207603
0.00207739
0.00207884
0.0020817
0.00208329
0.00208799
0.00208601
0.00208898
0.00208778
0.00209169
0.00209212
0.00208921
0.00208984
0.00209128
0.00209242
0.00209866
0.00210073
0.00210182
0.0021024
0.00210619
0.00211272
0.0021223
0.00213511
0.00214055
0.00214124
0.0021399
0.00214739
0.00215285
0.00216122
0.00216682
0.00217351
0.00218149
0.00218568
0.00219445
0.00220602
0.00221874
0.0022353
0.00224736
0.00226714
0.00228054
0.00230392
0.00232246
0.00235164
0.00238156
0.00241216
0.00244763
0.00248883
0.0025446
0.00257
0.00257514
0.00260164
0.00263847
0.00269274
0.00274602
0.0028143
0.00287996
0.0029679
0.00303423
0.00311518
0.00317582
0.0032769
0.0034046
0.00356404
0.00376226
0.00398391
0.00426216
0.00212007
0.0021203
0.00212474
0.0021259
0.00212215
0.00212485
0.00212254
0.00212294
0.0021253
0.00212774
0.00213076
0.00213483
0.0021384
0.0021417
0.00215194
0.00215544
0.0021598
0.00216134
0.00216077
0.00216571
0.00216708
0.00217718
0.00218033
0.00217611
0.00217646
0.00217926
0.00218322
0.00218794
0.00219349
0.00220183
0.00220982
0.0022209
0.00223209
0.00224314
0.00225813
0.00227351
0.00228929
0.00230893
0.00233524
0.00237004
0.00238563
0.00238324
0.00239091
0.00240433
0.00242455
0.00244799
0.00247353
0.00250177
0.00253216
0.00256366
0.00259939
0.00263987
0.00268866
0.00273404
0.00278174
0.00284044
0.00289365
0.00295581
0.0030156
0.00308152
0.00313817
0.00323089
0.00333007
0.00349546
0.00364993
0.00385985
0.00408349
0.00434953
0.00469277
0.00217805
0.00217572
0.00217752
0.00218046
0.0021828
0.00218473
0.00219009
0.0021916
0.00219057
0.0021921
0.00219551
0.00219794
0.00220668
0.00220976
0.00220867
0.00221031
0.00221253
0.00221596
0.00222143
0.00222546
0.00223233
0.00224221
0.00224948
0.00225834
0.0022683
0.00227371
0.00227969
0.00228462
0.00229242
0.00230083
0.00231344
0.00232714
0.00234411
0.00236014
0.00237336
0.00239976
0.00242204
0.00242999
0.00244968
0.00245497
0.0024717
0.00249115
0.00250819
0.0025298
0.00254821
0.00257797
0.00260474
0.00264445
0.00268779
0.00272964
0.00278472
0.00283447
0.00288013
0.00292355
0.0029626
0.00300142
0.00304993
0.00309953
0.0031505
0.00322819
0.00332657
0.00346875
0.00360926
0.00380249
0.00397157
0.00423437
0.00446963
0.00482482
0.00520874
0.00225486
0.00225626
0.00225652
0.00225763
0.00225837
0.00225507
0.00225657
0.00225892
0.00226326
0.00226871
0.00227263
0.00228183
0.00228634
0.00229056
0.00229305
0.00228865
0.002294
0.0022985
0.00230781
0.00232186
0.00232768
0.00232561
0.00232764
0.00233409
0.00234169
0.0023496
0.00235786
0.00236562
0.00237472
0.00238533
0.00239641
0.00241062
0.00242394
0.00244113
0.0024552
0.00247593
0.00249111
0.00251272
0.00253026
0.00255611
0.00258034
0.00261195
0.002641
0.00268303
0.00271783
0.00277051
0.00281174
0.00287766
0.00295326
0.00299472
0.00311743
0.00317273
0.00324254
0.0032939
0.00328625
0.00329344
0.00333417
0.00336913
0.00342568
0.00351197
0.00363522
0.00378087
0.00395107
0.00415669
0.00437543
0.00468134
0.00496481
0.00542933
0.00582939
0.00233932
0.00234161
0.00234458
0.00234553
0.00234714
0.00234738
0.0023446
0.00234523
0.00235015
0.00235828
0.0023649
0.00237245
0.00237931
0.00238447
0.00239086
0.00239831
0.00240332
0.00241643
0.00242374
0.00244026
0.0024362
0.00244409
0.00244377
0.00245054
0.00246137
0.00247745
0.00249846
0.00252566
0.0025373
0.00253325
0.00253939
0.00254772
0.00256062
0.00257992
0.0026055
0.00263159
0.00265485
0.00267608
0.00269517
0.00271382
0.00274064
0.00276398
0.00280732
0.00284039
0.00289775
0.00294291
0.00300828
0.00306922
0.0031373
0.00322158
0.00329191
0.00338134
0.00346881
0.00354027
0.00364588
0.00369377
0.00381478
0.00384575
0.00381018
0.00386727
0.00399441
0.00415943
0.00436677
0.00460718
0.00489087
0.00524516
0.00561546
0.00617068
0.00659956
0.00244172
0.00245206
0.00245343
0.00246353
0.00246647
0.00246992
0.00247081
0.00247327
0.00247421
0.002469
0.00246994
0.00247607
0.00248603
0.00249556
0.00250843
0.00251912
0.00252971
0.00254413
0.0025542
0.0025701
0.002584
0.00259094
0.00261337
0.00262144
0.00261971
0.00261909
0.00262724
0.00264627
0.00266202
0.00268186
0.00269794
0.00272286
0.00274284
0.00276881
0.00280502
0.00283011
0.0028527
0.00286656
0.00289003
0.00290576
0.00294263
0.00296888
0.00302222
0.0030619
0.00313031
0.003184
0.00326605
0.00332916
0.00342412
0.00349275
0.00358967
0.0036864
0.00373552
0.00388128
0.0039303
0.003982
0.00401339
0.0039965
0.0040818
0.00423008
0.00441645
0.0046317
0.00489582
0.00518503
0.00555761
0.00595671
0.00646583
0.00703918
0.00764474
0.00255312
0.00256116
0.00257083
0.00258021
0.00258872
0.00259462
0.00260081
0.00260541
0.00261568
0.00262339
0.00262712
0.00264358
0.00264927
0.00264616
0.00264839
0.00265752
0.00267126
0.00268793
0.00270295
0.00272328
0.00273739
0.00275614
0.002776
0.00279325
0.00280871
0.00284121
0.00283079
0.00285667
0.00284993
0.00285368
0.0028745
0.00289544
0.00292769
0.00295589
0.00299421
0.00303225
0.00307147
0.00310585
0.00313492
0.00316184
0.00319386
0.00322642
0.00327703
0.00332375
0.00338718
0.00345198
0.00351522
0.00359954
0.00366111
0.00374545
0.00382812
0.00390585
0.0040294
0.00410315
0.00414765
0.00419232
0.00424568
0.00437959
0.00454287
0.00474678
0.0049781
0.00525435
0.00557664
0.00594749
0.00639756
0.00688301
0.00750464
0.00811005
0.00893981
0.00273067
0.00273457
0.00273054
0.00273213
0.00273989
0.00274883
0.00275861
0.00276756
0.00277779
0.00278745
0.00279633
0.00280438
0.00281475
0.00283227
0.00284762
0.00286374
0.00287128
0.0028774
0.0028813
0.00289194
0.00290642
0.00292241
0.00294369
0.00296575
0.00298794
0.00301555
0.00304163
0.00305961
0.00309836
0.00312452
0.00316209
0.00321856
0.00324225
0.00323427
0.00324176
0.00326808
0.00329953
0.00333961
0.00338112
0.00342673
0.00347637
0.00352573
0.00358415
0.00363581
0.00369565
0.00374668
0.00380604
0.00386441
0.00392611
0.00399417
0.0041214
0.0042037
0.00431747
0.00433935
0.00442822
0.00456474
0.00473036
0.00492971
0.0051534
0.00541774
0.00571653
0.00606796
0.00646753
0.00693079
0.00745806
0.00805194
0.0087321
0.00945532
0.0103195
0.00292422
0.00293475
0.00294009
0.00295636
0.00295167
0.00296247
0.00295649
0.00295722
0.00296756
0.00297967
0.00299567
0.00301303
0.00302742
0.00304967
0.00306679
0.00308931
0.00310464
0.00312631
0.00314967
0.00316733
0.00318831
0.00322706
0.00321529
0.00325061
0.00324118
0.0032442
0.00326553
0.00328489
0.00331989
0.0033483
0.00339183
0.00342499
0.00347358
0.00350627
0.00356251
0.00360198
0.00366948
0.00372132
0.00378684
0.00386541
0.00389885
0.00400874
0.00405735
0.00411064
0.00415168
0.00413571
0.00411782
0.00415044
0.00421282
0.00429857
0.00439758
0.00451986
0.00466006
0.00482455
0.00500509
0.00520913
0.00543508
0.00569371
0.00598518
0.00631966
0.00669924
0.0071306
0.00761935
0.00816547
0.00877844
0.0094518
0.0101933
0.0109995
0.0118651
0.00318256
0.00319769
0.00320769
0.0032239
0.00323654
0.00324952
0.0032592
0.00328223
0.00327243
0.00328961
0.00328398
0.00328705
0.00330154
0.00332076
0.00333916
0.00336871
0.00339253
0.003429
0.00345377
0.00350087
0.0035358
0.00355867
0.00361426
0.00363964
0.00365772
0.00364027
0.00364114
0.00366099
0.00369754
0.00374042
0.00380004
0.00383954
0.00390018
0.00393879
0.00401
0.00405192
0.00413197
0.00419282
0.00423113
0.00433139
0.00430339
0.00440305
0.00436838
0.00437877
0.00442516
0.0044959
0.0045841
0.00468829
0.00480536
0.0049377
0.00508383
0.00524724
0.00542724
0.00563038
0.00585724
0.00611518
0.00640473
0.00673338
0.00710178
0.00751614
0.00797853
0.00849068
0.0090591
0.00967644
0.0103574
0.0110836
0.0118711
0.0127165
0.0135485
0.00350033
0.00351661
0.00353183
0.00355176
0.00357303
0.00359492
0.0036202
0.00363836
0.00365912
0.00369544
0.00368152
0.00370831
0.00369672
0.00369981
0.00371715
0.00374299
0.00377561
0.00381117
0.00385115
0.00388764
0.00392961
0.00396073
0.00400358
0.00403525
0.00408422
0.00411761
0.00417394
0.00421148
0.00428135
0.00432219
0.0044067
0.00444637
0.00454394
0.00458059
0.00462102
0.00456853
0.00462037
0.0045947
0.00460762
0.00465644
0.00471672
0.00479319
0.00487811
0.00497324
0.00507872
0.00519607
0.00532532
0.00546882
0.0056266
0.00580198
0.00599569
0.00621196
0.00645177
0.00671998
0.00701746
0.00734934
0.00771598
0.00812233
0.00856818
0.00905739
0.00959029
0.0101672
0.0107927
0.0114581
0.0121792
0.0129272
0.0137446
0.0145523
0.0154643
0.00392318
0.00394142
0.00395986
0.00398166
0.0040041
0.00402799
0.00405497
0.00407989
0.00410785
0.00413777
0.00416482
0.0041952
0.00422969
0.00426696
0.0042902
0.00434678
0.00435897
0.0043474
0.00435714
0.00437775
0.00440923
0.00444255
0.00448317
0.00452061
0.00456546
0.00460074
0.00464993
0.00468272
0.00473157
0.00476813
0.00482057
0.00486267
0.00491948
0.00496904
0.00503432
0.00509611
0.00517064
0.00525049
0.00533804
0.00543354
0.00553783
0.00565135
0.00577505
0.00591045
0.00605848
0.00622098
0.00639897
0.00659473
0.00680956
0.00704558
0.00730393
0.0075876
0.00789742
0.00823659
0.00860546
0.00900726
0.00944154
0.00991154
0.0104158
0.0109577
0.011535
0.0121502
0.0128023
0.0134895
0.0142135
0.0149677
0.0157511
0.0165591
0.0173783
0.00451065
0.00453347
0.00455636
0.0045823
0.00460822
0.00463753
0.00466558
0.0046988
0.00472895
0.00476538
0.00479916
0.00483837
0.00487469
0.00492181
0.0049576
0.00500889
0.00504513
0.00509957
0.00513958
0.00520907
0.0052578
0.00534204
0.00539829
0.00549462
0.00557175
0.00561992
0.00573396
0.00568972
0.00579835
0.0057518
0.00574961
0.00579031
0.0058552
0.00593802
0.00603011
0.00613205
0.0062421
0.00636087
0.00648918
0.00662779
0.00677751
0.00693936
0.00711427
0.00730352
0.00750811
0.00772948
0.00796861
0.00822707
0.00850582
0.00880655
0.00912995
0.00947684
0.0098478
0.0102445
0.0106669
0.0111169
0.0115941
0.0121002
0.0126344
0.0131986
0.013791
0.014413
0.0150636
0.0157382
0.0164406
0.0171597
0.0178905
0.0186476
0.0193408
0.00535927
0.00538863
0.00541825
0.00544903
0.00548049
0.00551296
0.00554591
0.00558045
0.00561604
0.00565345
0.00569318
0.0057349
0.00577957
0.00582692
0.00587699
0.00592966
0.00598528
0.0060439
0.00610598
0.00617247
0.00624251
0.00631933
0.00639837
0.00648433
0.00657483
0.00665784
0.00675222
0.00683635
0.00692851
0.00702018
0.00711818
0.00722656
0.00734542
0.00747504
0.00761485
0.00776489
0.00792519
0.00809616
0.00827827
0.00847196
0.00867778
0.00889634
0.00912823
0.00937416
0.00963474
0.00991071
0.0102027
0.0105114
0.0108374
0.0111817
0.0115449
0.011928
0.0123313
0.0127546
0.0131986
0.0136643
0.014152
0.0146623
0.0151955
0.015751
0.0163285
0.016927
0.0175445
0.0181741
0.0188238
0.0194678
0.0201212
0.0207617
0.0213619
0.00666543
0.00671346
0.00676215
0.00681196
0.00686294
0.00691472
0.00696775
0.00702205
0.0070786
0.00713723
0.00719932
0.0072647
0.00733487
0.00740937
0.00748948
0.00757444
0.00766548
0.00776154
0.00786371
0.00797038
0.00808295
0.00819803
0.00831943
0.00844189
0.00857057
0.00870368
0.00884097
0.00898297
0.00912919
0.00928062
0.00943845
0.00960359
0.00977664
0.00995793
0.0101477
0.010346
0.0105531
0.0107693
0.0109946
0.0112294
0.0114737
0.011728
0.0119925
0.0122675
0.0125535
0.0128509
0.0131601
0.0134819
0.0138169
0.014166
0.01453
0.0149099
0.0153069
0.0157224
0.0161551
0.0166049
0.0170728
0.0175575
0.0180614
0.0185769
0.01911
0.0196518
0.0201998
0.0207483
0.021307
0.0218266
0.0223618
0.0228444
0.0233172
0.00891165
0.00900151
0.00909297
0.00918667
0.00928247
0.00938016
0.00947991
0.00958196
0.00968671
0.0097946
0.00990618
0.0100221
0.0101427
0.0102686
0.0103997
0.0105363
0.0106778
0.0108246
0.0109755
0.0111306
0.0112886
0.0114496
0.0116129
0.0117788
0.0119473
0.0121189
0.0122937
0.012472
0.0126541
0.01284
0.01303
0.0132242
0.0134227
0.0136257
0.0138332
0.0140454
0.0142625
0.0144847
0.0147123
0.0149455
0.0151845
0.0154296
0.0156814
0.0159401
0.0162063
0.0164807
0.0167639
0.0170569
0.0173607
0.0176761
0.0180048
0.0183476
0.0187067
0.0190805
0.0194739
0.0198805
0.0203017
0.0207329
0.0211797
0.0216152
0.0220749
0.0225131
0.0229457
0.0233713
0.0237796
0.0240956
0.0244993
0.0247764
0.025125
0.0129514
0.0130977
0.0132449
0.0133937
0.0135438
0.0136948
0.0138467
0.0139996
0.0141534
0.0143082
0.0144642
0.0146216
0.0147806
0.0149412
0.0151036
0.0152675
0.0154329
0.0155996
0.0157673
0.0159359
0.0161051
0.0162748
0.0164449
0.016615
0.0167853
0.0169555
0.017126
0.0172968
0.0174682
0.0176402
0.0178132
0.0179871
0.0181622
0.0183384
0.018516
0.018695
0.0188756
0.0190584
0.0192435
0.0194314
0.0196225
0.019817
0.0200157
0.0202191
0.0204281
0.0206441
0.0208671
0.0210983
0.0213399
0.0215922
0.0218586
0.0221387
0.0224371
0.0227444
0.0230733
0.0234103
0.0237591
0.0241064
0.0244574
0.0247446
0.0251125
0.0253668
0.025633
0.0258751
0.0259908
0.0260421
0.026417
0.0266415
0.027064
0.0188917
0.0190621
0.0192314
0.0194006
0.0195691
0.0197367
0.0199033
0.0200687
0.0202328
0.0203953
0.0205562
0.0207156
0.0208734
0.0210297
0.0211844
0.0213375
0.0214892
0.0216399
0.0217888
0.0219361
0.022081
0.022223
0.0223625
0.0224987
0.022632
0.0227623
0.0228901
0.0230154
0.0231385
0.0232597
0.0233792
0.0234973
0.0236144
0.0237305
0.0238458
0.0239605
0.0240747
0.0241893
0.0243038
0.0244204
0.0245366
0.0246529
0.0247717
0.0248934
0.0250201
0.0251541
0.0252902
0.025432
0.0255908
0.0257578
0.0259482
0.0261464
0.0263759
0.0265887
0.0268406
0.0270838
0.0273347
0.0275417
0.0276939
0.0277083
0.0279197
0.0277855
0.0277329
0.0276111
0.0273857
0.0275572
0.0278634
0.0286406
0.0296405
0.0261113
0.026272
0.0264289
0.0265829
0.026734
0.0268817
0.0270259
0.0271664
0.0273029
0.0274354
0.0275638
0.0276883
0.0278087
0.027925
0.028037
0.0281455
0.0282509
0.0283614
0.0284615
0.0285629
0.0286535
0.0287367
0.0288198
0.0288929
0.0289635
0.0290287
0.0290941
0.0291546
0.0292102
0.0292612
0.0293079
0.0293512
0.0293913
0.0294286
0.029463
0.029495
0.0295245
0.0295534
0.0295804
0.0296125
0.0296253
0.0296351
0.0296556
0.0296743
0.0297071
0.0297438
0.0297537
0.0297709
0.0299127
0.0299383
0.030118
0.0301402
0.0303683
0.0304403
0.0304627
0.0304148
0.0303144
0.0300899
0.0297749
0.0294271
0.0290897
0.0288101
0.0285077
0.0285098
0.0287359
0.0290326
0.0304929
0.0337453
0.0380924
0.0336665
0.0337823
0.0338901
0.033992
0.0340895
0.0341814
0.0342688
0.0343503
0.0344251
0.0344945
0.0345574
0.0346179
0.0346736
0.034724
0.0347694
0.034813
0.0348457
0.034977
0.0349664
0.0350668
0.0350405
0.035014
0.0350871
0.0350416
0.0350401
0.0350281
0.0351044
0.0351237
0.0351296
0.0351237
0.0351068
0.035081
0.0350467
0.0350052
0.0349567
0.0349037
0.0348476
0.0347882
0.0347265
0.0346456
0.0344485
0.0342781
0.0341964
0.0340317
0.0339465
0.0338004
0.0335536
0.0334633
0.0332969
0.0330867
0.032883
0.0326662
0.0324337
0.0321572
0.0318585
0.031488
0.0311096
0.0306908
0.0302628
0.0298849
0.0297016
0.0296499
0.0298559
0.0303165
0.0329277
0.0349958
0.0408994
0.051228
0.0697871
0.0406936
0.040738
0.0407334
0.0407374
0.0407522
0.0407593
0.0408073
0.0408211
0.0408274
0.0408297
0.0407763
0.0407943
0.0407891
0.0407772
0.0407572
0.0407262
0.040627
0.0405084
0.0403835
0.0402607
0.0401284
0.0399894
0.0398503
0.0397
0.039545
0.0393839
0.0392249
0.0390581
0.0388885
0.038715
0.0385336
0.0383507
0.0381608
0.037968
0.0377663
0.037564
0.0373521
0.0371375
0.0369132
0.0366868
0.0364475
0.0362012
0.0359597
0.0357092
0.035469
0.0352288
0.0349673
0.0346969
0.0344026
0.0340883
0.0337514
0.0333832
0.0329879
0.0325601
0.0320805
0.0315415
0.0312089
0.0307024
0.0305371
0.0307992
0.0315644
0.0324901
0.0348568
0.0386216
0.0450259
0.0573876
0.0739746
0.0952478
0.108579
0.0439979
0.043944
0.0438795
0.0438082
0.043732
0.0436503
0.0435633
0.0434729
0.0433739
0.0432691
0.043159
0.0430472
0.042933
0.0428134
0.0426893
0.0425622
0.0424244
0.0422724
0.0421109
0.0419377
0.0417544
0.041561
0.041361
0.0411541
0.0409384
0.0407184
0.0404922
0.0402603
0.0400267
0.0397869
0.0395454
0.0392981
0.0390505
0.0388004
0.0385528
0.0383055
0.0380598
0.0378103
0.0375565
0.037292
0.0370316
0.0367698
0.0365028
0.0362189
0.0359133
0.0355733
0.0351983
0.0347741
0.0343
0.0337774
0.0331902
0.032594
0.0320266
0.0315183
0.0311005
0.0310124
0.0319766
0.0321498
0.0333086
0.0356635
0.0395282
0.0451818
0.0535374
0.0645917
0.0788579
0.0920249
0.0996479
0.0954588
0.084611
0.0430892
0.0429644
0.0428396
0.0427135
0.0425857
0.0424593
0.0423249
0.04219
0.042046
0.0418974
0.0417461
0.0415883
0.0414255
0.0412545
0.04108
0.0409021
0.0407114
0.0405191
0.040316
0.0400956
0.0398755
0.0396367
0.039396
0.039137
0.0388751
0.0385995
0.03831
0.0380072
0.0376927
0.0373654
0.0370265
0.0366749
0.0363122
0.0359359
0.03555
0.0351411
0.0347405
0.0343003
0.0338835
0.0334187
0.0329805
0.0325089
0.0320495
0.0315889
0.0311453
0.0307008
0.0303004
0.0299488
0.029599
0.0295523
0.0293811
0.0301459
0.0302461
0.0320405
0.0327223
0.0362415
0.0365578
0.0387857
0.0422854
0.0474228
0.0545443
0.0626618
0.0728179
0.0795708
0.0782317
0.069437
0.0596728
0.0522661
0.0477103
0.033063
0.0331307
0.0332531
0.0333521
0.03354
0.0336645
0.0337928
0.0339358
0.0339921
0.0342323
0.0343308
0.0343082
0.0344032
0.0344494
0.0346805
0.0346407
0.03486
0.0348704
0.0350927
0.0350251
0.0352247
0.0353218
0.0353923
0.0353307
0.0355154
0.0354653
0.0353816
0.0352883
0.0351887
0.035086
0.0349813
0.0348735
0.0347612
0.0346426
0.0345176
0.034384
0.0342431
0.0340915
0.0339321
0.0337609
0.0335791
0.0333839
0.033174
0.0329445
0.032694
0.032413
0.0320989
0.0317393
0.0313241
0.0308451
0.0302717
0.0296093
0.0287861
0.0278067
0.0265912
0.0250944
0.023065
0.0204029
0.0164552
0.0132264
0.0146533
0.0180326
0.0204564
0.0214626
0.0213838
0.0201644
0.0188398
0.0182141
0.0180643
0.00191712
0.00191923
0.00191905
0.00191923
0.00192088
0.00192151
0.00192349
0.00192446
0.00192553
0.00192607
0.00192687
0.00192761
0.00193432
0.00193876
0.00194072
0.00194058
0.0019458
0.00194911
0.00195211
0.00195459
0.00195774
0.00196049
0.0019631
0.00196549
0.00196921
0.00197361
0.00198008
0.00198605
0.00198945
0.00198937
0.0019909
0.00199474
0.00200046
0.00200012
0.00199954
0.00199897
0.00199941
0.00199879
0.00199546
0.00199442
0.00198999
0.00198975
0.00198895
0.00198552
0.00198372
0.00197941
0.00197464
0.0019704
0.00196629
0.0019644
0.00196302
0.00196184
0.00196153
0.00196013
0.0019583
0.00195844
0.00195615
0.00195206
0.00194928
0.00192516
0.00192499
0.00192541
0.00192721
0.00192896
0.00192935
0.00193086
0.00193056
0.00193192
0.00193245
0.00193344
0.00193751
0.00194268
0.0019442
0.00194521
0.00194663
0.00195284
0.00195567
0.00195803
0.0019606
0.00196393
0.00196684
0.00196911
0.00197204
0.00197556
0.00197993
0.00198654
0.00199256
0.00199573
0.00199581
0.00199771
0.00200126
0.00200706
0.00200711
0.00200688
0.00200674
0.00200759
0.00200706
0.00200477
0.00200364
0.00200037
0.00199909
0.00199882
0.00199687
0.00199432
0.00199187
0.0019872
0.00198299
0.00197924
0.00197561
0.00197422
0.00197445
0.00197334
0.00197301
0.00197195
0.00196883
0.00196871
0.00196731
0.00196477
0.00193378
0.00193511
0.00193545
0.00193655
0.00193859
0.00193897
0.00194015
0.00194079
0.00194197
0.00194373
0.0019461
0.00194916
0.00195142
0.0019525
0.00195364
0.00195752
0.00196235
0.00196462
0.00196645
0.00196939
0.0019733
0.00197596
0.00197815
0.0019814
0.00198471
0.00198929
0.00199586
0.00200204
0.002005
0.00200538
0.0020076
0.00201094
0.00201651
0.00201769
0.00201776
0.00201741
0.00201804
0.00201943
0.00201783
0.00201605
0.00201275
0.00201109
0.00201104
0.00201052
0.00200847
0.00200701
0.0020042
0.00200104
0.00199735
0.00199405
0.00199089
0.00198953
0.00198976
0.00198838
0.00198946
0.00198895
0.00198866
0.0019861
0.00198571
0.00194804
0.00194888
0.00194999
0.00195119
0.00195235
0.00195315
0.00195462
0.00195557
0.00195708
0.00195883
0.00196062
0.00196235
0.00196357
0.00196484
0.00196744
0.0019721
0.00197503
0.00197678
0.00197866
0.00198254
0.00198639
0.00198885
0.00199114
0.00199449
0.00199762
0.00200248
0.00200896
0.00201518
0.00201804
0.00201873
0.00202126
0.00202435
0.00203003
0.00203149
0.00203208
0.00203283
0.00203353
0.00203368
0.0020342
0.00203372
0.00203108
0.00202953
0.00202955
0.00202925
0.00202733
0.00202485
0.00202205
0.00201995
0.00201784
0.00201605
0.0020135
0.00201122
0.00200755
0.00200794
0.00200732
0.00200719
0.00200751
0.00200734
0.00200905
0.00196522
0.00196589
0.00196688
0.00196806
0.00196976
0.00197138
0.00197285
0.0019744
0.00197541
0.00197684
0.00197807
0.00197916
0.00198027
0.00198233
0.00198568
0.001989
0.00199091
0.00199247
0.00199501
0.00199967
0.00200295
0.00200532
0.0020078
0.00201112
0.00201416
0.00201941
0.00202588
0.00203211
0.002035
0.00203603
0.00203885
0.00204186
0.00204729
0.00205044
0.00205037
0.00205068
0.00205211
0.00205601
0.00205503
0.00205448
0.0020532
0.00205057
0.00205008
0.00205112
0.0020522
0.00205174
0.00204944
0.00204616
0.002042
0.00204225
0.00204235
0.00204218
0.00204159
0.00203893
0.00203656
0.0020372
0.00203753
0.00203548
0.00203661
0.00198641
0.00198836
0.00198905
0.00199005
0.0019919
0.00199237
0.00199403
0.00199431
0.00199633
0.0019981
0.00199957
0.0020008
0.00200251
0.0020051
0.00200792
0.00201009
0.00201172
0.00201364
0.00201736
0.00202172
0.00202468
0.00202712
0.00202972
0.0020329
0.00203592
0.00204155
0.002048
0.00205421
0.0020572
0.00205859
0.00206175
0.00206472
0.00207022
0.00207354
0.00207516
0.00207663
0.00207639
0.00207846
0.00208215
0.00208393
0.00208294
0.00208048
0.00207975
0.00207925
0.00208004
0.00208063
0.00208299
0.00208307
0.00208106
0.00207689
0.00207448
0.00207425
0.00207382
0.00207592
0.0020746
0.00207634
0.00207458
0.00207544
0.00207458
0.00201489
0.00201622
0.00201694
0.00201796
0.00201919
0.00202111
0.00202238
0.0020224
0.00202513
0.00202652
0.00202764
0.00202909
0.00203064
0.00203273
0.00203465
0.00203645
0.00203821
0.00204109
0.0020454
0.00204888
0.00205165
0.00205422
0.00205688
0.00205982
0.00206303
0.00206914
0.00207565
0.00208187
0.00208506
0.00208688
0.00209043
0.00209353
0.00209885
0.00210324
0.00210491
0.00210691
0.00210886
0.00211136
0.00211203
0.00211514
0.00211825
0.00211682
0.00211654
0.00211588
0.00211716
0.00211645
0.00211774
0.00211884
0.00212055
0.00212192
0.00211999
0.00211776
0.00211718
0.00211614
0.00211544
0.0021166
0.00211711
0.00211784
0.00211827
0.002052
0.00205213
0.00205261
0.00205307
0.00205428
0.00205642
0.00205687
0.00205844
0.00205963
0.00205973
0.00206221
0.002063
0.00206569
0.00206718
0.00206934
0.00207105
0.00207329
0.0020769
0.00208052
0.00208357
0.00208626
0.00208888
0.00209155
0.00209444
0.00209795
0.00210446
0.00211105
0.00211725
0.0021207
0.00212299
0.00212699
0.00213033
0.00213574
0.00214029
0.00214383
0.00214633
0.00214648
0.00215052
0.00215635
0.00215731
0.00216026
0.00216316
0.00216326
0.0021615
0.00216083
0.00216182
0.0021637
0.00216624
0.00216942
0.00217192
0.00217318
0.00217449
0.00217628
0.002179
0.00217964
0.00217874
0.00217593
0.00217772
0.00217804
0.00209002
0.0020909
0.00209164
0.00209272
0.00209468
0.00209577
0.00209826
0.00209959
0.00210122
0.00210305
0.00210401
0.00210609
0.00210692
0.0021096
0.00211146
0.00211393
0.00211683
0.00212004
0.00212295
0.00212583
0.0021284
0.00213102
0.00213374
0.00213683
0.00214085
0.00214786
0.00215465
0.00216091
0.00216476
0.00216763
0.00217216
0.0021759
0.00218135
0.00218671
0.00219036
0.00219427
0.00219834
0.00219848
0.00220394
0.00220949
0.00221337
0.00221579
0.00221959
0.00221995
0.00222201
0.00221998
0.00222153
0.00221978
0.00222156
0.00222416
0.00222756
0.00223193
0.00223608
0.00224123
0.00224406
0.00225003
0.00225098
0.00225007
0.00225401
0.00214409
0.00214811
0.0021491
0.00215092
0.00215081
0.00215343
0.002152
0.00215115
0.00215496
0.00215496
0.00215566
0.00215893
0.002161
0.00216311
0.00216489
0.00216793
0.0021703
0.002174
0.00217643
0.00217921
0.00218188
0.00218462
0.00218754
0.00219103
0.00219562
0.00220316
0.00221003
0.00221641
0.00222072
0.00222423
0.00222937
0.00223368
0.00223941
0.00224515
0.00225091
0.00225411
0.00225947
0.00226515
0.00226668
0.0022722
0.0022783
0.00228288
0.00228585
0.00229428
0.00229466
0.0022946
0.00229765
0.0023013
0.00230103
0.00230462
0.00230392
0.00230401
0.00230515
0.00230872
0.00231311
0.00231901
0.00232692
0.002331
0.00233285
0.00223491
0.00223456
0.00223284
0.00223188
0.00223027
0.00222904
0.00222761
0.00222695
0.00222715
0.00222627
0.00222578
0.00222602
0.00222578
0.00222918
0.00223068
0.00223448
0.00223643
0.00223942
0.00224197
0.00224466
0.00224731
0.00225001
0.00225326
0.00225742
0.00226282
0.00227084
0.002278
0.00228472
0.00228968
0.00229401
0.00229992
0.00230497
0.0023111
0.00231738
0.00232379
0.00232945
0.00233352
0.00234082
0.00234697
0.00235125
0.00235705
0.00236332
0.0023684
0.00237615
0.00238003
0.0023828
0.00238524
0.00239013
0.00239237
0.00239953
0.0024028
0.00240725
0.00241414
0.00241538
0.00241336
0.00241521
0.00241989
0.00242569
0.00243525
0.00233361
0.00233128
0.00232817
0.00232565
0.00232293
0.00232063
0.0023185
0.00231681
0.00231539
0.00231393
0.00231295
0.00231243
0.00231213
0.00231211
0.00231377
0.00231669
0.00231946
0.00232253
0.00232544
0.00232834
0.00233119
0.00233398
0.00233777
0.00234275
0.00234921
0.00235732
0.00236479
0.00237195
0.00237766
0.00238292
0.00238973
0.0023958
0.00240268
0.00240988
0.00241769
0.00242445
0.00243126
0.00243761
0.00244666
0.00245361
0.00245969
0.00246619
0.00247192
0.00248028
0.00248586
0.00249304
0.002497
0.00250209
0.00250609
0.00251122
0.00251657
0.00252285
0.0025293
0.00253897
0.00254217
0.00255061
0.00255256
0.00255067
0.00255069
0.00245057
0.00244728
0.00244332
0.00243992
0.00243644
0.00243339
0.00243052
0.00242806
0.00242589
0.00242405
0.00242266
0.0024217
0.00242108
0.00242085
0.002421
0.00242164
0.00242401
0.00242612
0.0024289
0.00243176
0.00243457
0.00243748
0.0024418
0.00244779
0.00245531
0.00246388
0.00247199
0.00247994
0.00248671
0.00249321