/*--------------------------------*- C++ -*----------------------------------*\
| =========                 |                                                 |
| \\      /  F ield         | OpenFOAM: The Open Source CFD Toolbox           |
|  \\    /   O peration     | Version:  2312                                  |
|   \\  /    A nd           | Website:  www.openfoam.com                      |
|    \\/     M anipulation  |                                                 |
\*---------------------------------------------------------------------------*/
FoamFile
{
    version     2.0;
    format      ascii;
    arch        "LSB;label=32;scalar=64";
    class       volScalarField;
    location    "1900";
    object      nut;
}
// * * * * * * * * * * * * * * * * * * * * * * * * * * * * * * * * * * * * * //

dimensions      [0 2 -1 0 0 0 0];

internalField   nonuniform List<scalar> 
76025
(
0.00133984
0.00134378
0.00134686
0.00134743
0.0013459
0.00134844
0.00134685
0.00134453
0.00134327
0.00134201
0.00134759
0.0013522
0.0013537
0.00135395
0.00135806
0.00135538
0.00135664
0.00135679
0.00135758
0.0013552
0.00135955
0.00136134
0.00136683
0.00137243
0.00137246
0.00137467
0.00137243
0.00137295
0.00137453
0.00137828
0.00137887
0.00137995
0.00138224
0.00138376
0.00139064
0.00138577
0.00138806
0.00138106
0.00138277
0.00138673
0.00139225
0.00139858
0.0014051
0.00141112
0.00141757
0.00142403
0.00143414
0.00144498
0.00145738
0.00147125
0.00148692
0.0015038
0.00152568
0.00154058
0.00154581
0.00154537
0.00154326
0.00154822
0.00156066
0.00157823
0.00161106
0.0016353
0.00166815
0.00168532
0.00171067
0.00173245
0.0017734
0.00183228
0.00187885
0.00134607
0.00134468
0.00134471
0.00134466
0.00135132
0.00135494
0.0013537
0.00135177
0.00135158
0.00134937
0.00135401
0.00135753
0.00135824
0.00135667
0.00136434
0.0013653
0.00137121
0.00136842
0.00137041
0.0013681
0.0013707
0.00137051
0.00137629
0.00138027
0.00137991
0.00138609
0.001384
0.00138224
0.00138533
0.00138719
0.00138938
0.00139168
0.00139129
0.00139728
0.00141173
0.00141869
0.00142021
0.00142067
0.00142112
0.00142705
0.00143849
0.00144656
0.00145304
0.00145331
0.00145478
0.00145862
0.00146684
0.00147638
0.00148514
0.00149598
0.0015074
0.00152147
0.001543
0.00156682
0.00157049
0.0015706
0.00156956
0.00158004
0.00160108
0.00163219
0.00166773
0.00169544
0.00171707
0.0017326
0.00175944
0.00178716
0.00183983
0.0018963
0.00195844
0.00136476
0.00136198
0.00135912
0.00135687
0.00135343
0.00135741
0.00135726
0.00135866
0.00136031
0.00136487
0.00136821
0.00136963
0.00137166
0.00137396
0.00137707
0.00138075
0.0013863
0.00138995
0.00138828
0.00139479
0.00139481
0.00139565
0.00140045
0.0014013
0.00139975
0.00139731
0.00140112
0.00140508
0.0014076
0.0014128
0.00141896
0.00142179
0.00142327
0.00142403
0.00142581
0.00143374
0.00143419
0.00143549
0.00145366
0.00146554
0.00145895
0.00145388
0.00145656
0.0014569
0.0014633
0.00147193
0.00148409
0.00149491
0.00150208
0.00151137
0.00151904
0.00153198
0.00154008
0.00155185
0.00156231
0.00158197
0.0015993
0.00162835
0.0016587
0.00169777
0.00172998
0.00175325
0.00177034
0.00178721
0.00180873
0.00185524
0.00189554
0.00197546
0.00202276
0.00137861
0.00137996
0.0013794
0.00137847
0.00137925
0.00137768
0.00137729
0.00137657
0.00137506
0.00137884
0.00137769
0.00137772
0.00137824
0.00137945
0.0013832
0.00138373
0.00139013
0.00138805
0.00138728
0.00138759
0.00138853
0.00139148
0.0013961
0.00140141
0.00141115
0.00141566
0.00141432
0.00141616
0.00141354
0.00141564
0.00142256
0.00142496
0.00142769
0.00142975
0.0014288
0.00142609
0.00143286
0.0014344
0.00144701
0.00145946
0.00146795
0.00147212
0.00149306
0.00149558
0.00148937
0.00148992
0.00149763
0.00151126
0.00152698
0.00154897
0.00156344
0.0015796
0.00158505
0.00159857
0.00160497
0.00162588
0.00164035
0.00167649
0.00170445
0.00175012
0.00177926
0.00180759
0.00181811
0.00183554
0.00186021
0.00191737
0.00196408
0.00204082
0.00211582
0.00138863
0.00139088
0.00139156
0.00139531
0.00139635
0.00139691
0.00139885
0.00140189
0.00140112
0.00140112
0.00140171
0.00139931
0.00140143
0.00139944
0.00140025
0.00140069
0.00140264
0.00140469
0.00140354
0.00140918
0.00141074
0.00141522
0.00141883
0.00141843
0.00142174
0.00142856
0.00143731
0.00143774
0.00143569
0.00143736
0.00143378
0.00143172
0.00142825
0.00142791
0.00143094
0.00143595
0.00144498
0.00145314
0.00146172
0.00147151
0.00147414
0.00147741
0.00148073
0.00148511
0.00147268
0.00148477
0.00150647
0.00152845
0.00155582
0.00158626
0.00160327
0.00161073
0.00160738
0.00161866
0.00162785
0.00166121
0.00168301
0.00173027
0.00174998
0.00180579
0.0018282
0.00186241
0.00185725
0.00188608
0.00191654
0.0019857
0.0020362
0.00213272
0.00219404
0.00140739
0.00140356
0.00140573
0.00140671
0.00140841
0.00141062
0.00141215
0.00141396
0.00142198
0.00141904
0.00142415
0.00142064
0.0014281
0.00142709
0.00142198
0.00142406
0.00142696
0.00142797
0.00143509
0.00143726
0.00143677
0.00143435
0.00143632
0.00144129
0.00145129
0.00146731
0.0014728
0.0014702
0.00146266
0.0014679
0.00146922
0.00147038
0.00146257
0.00146448
0.00147703
0.00147786
0.00148503
0.00149174
0.00149965
0.00151037
0.00151355
0.00152119
0.00152629
0.00153018
0.00153149
0.0015425
0.00154467
0.00154002
0.00156721
0.00162201
0.00168297
0.00169922
0.00167962
0.00168915
0.0016971
0.001728
0.00173758
0.00177237
0.00177853
0.00182924
0.00183565
0.00188112
0.00188022
0.00193463
0.00198267
0.00206518
0.00213212
0.00222322
0.00231057
0.00142673
0.00142752
0.00143341
0.00143473
0.00142908
0.00143211
0.00142781
0.00142613
0.00142755
0.00142872
0.00143195
0.00143617
0.00143952
0.00144273
0.00145441
0.00145795
0.00145915
0.00146219
0.00145826
0.00146419
0.0014627
0.00147387
0.00147466
0.00146597
0.00146173
0.00145537
0.00145568
0.0014586
0.0014618
0.00146949
0.00147143
0.00147981
0.00148059
0.00148558
0.00149172
0.00149042
0.00150133
0.0015286
0.00155996
0.00160155
0.00160566
0.00158508
0.00157636
0.00156415
0.00157009
0.00156807
0.00156909
0.00158366
0.00160707
0.00162241
0.0016402
0.00166796
0.00170139
0.00172824
0.00174056
0.00176781
0.00176911
0.0017898
0.0017857
0.00180995
0.00180845
0.00185826
0.00190477
0.00200064
0.0020763
0.00216739
0.00223865
0.00234698
0.00242811
0.00144612
0.0014441
0.00144713
0.00144933
0.00145142
0.0014494
0.00145511
0.00145672
0.00145411
0.00145497
0.00145729
0.00145836
0.00146726
0.00146706
0.00146362
0.00145633
0.00145561
0.00145627
0.00146066
0.00146873
0.00147815
0.00148611
0.00149179
0.00149429
0.00150012
0.00150177
0.00149497
0.00150085
0.00150219
0.00151717
0.00153352
0.00154708
0.0015594
0.00156955
0.00157312
0.00159713
0.00161199
0.00161434
0.00162521
0.00161921
0.00162158
0.00162548
0.00162467
0.00162529
0.00161481
0.00162819
0.0016209
0.00163807
0.00165296
0.00165889
0.00166619
0.00170156
0.00176161
0.00179747
0.00179929
0.00180247
0.00179372
0.00179543
0.00177756
0.00181422
0.00185223
0.00194834
0.00203049
0.00211921
0.00220838
0.0022771
0.00238151
0.0024649
0.00258368
0.00148447
0.00148791
0.0014854
0.00148621
0.0014885
0.0014836
0.00148245
0.00148376
0.0014809
0.00148487
0.00148638
0.00149629
0.00150569
0.00151147
0.00151169
0.00150119
0.00150204
0.00150158
0.00150758
0.00151871
0.00152224
0.00151005
0.00150476
0.00150829
0.00150334
0.00150809
0.00152295
0.00153264
0.00153919
0.00154462
0.00154624
0.00154582
0.00153782
0.00155435
0.0015697
0.00159087
0.00159575
0.00161372
0.00161243
0.00162866
0.00162979
0.00164283
0.00165082
0.00166251
0.00168123
0.00170466
0.00171806
0.00177438
0.00180539
0.00183043
0.00198771
0.00203549
0.00207291
0.00207902
0.00199689
0.00194513
0.00191466
0.0018823
0.00186343
0.00190292
0.0019575
0.00206106
0.00214167
0.00223866
0.00233288
0.00241017
0.00252736
0.00262493
0.0027428
0.00150611
0.0015069
0.00150982
0.00151001
0.00151232
0.00150826
0.00150393
0.0015077
0.0015136
0.00152203
0.00152483
0.00152915
0.00153406
0.00153653
0.00153435
0.00153976
0.00154419
0.00156258
0.00156836
0.00157942
0.0015673
0.00156587
0.00155191
0.00155403
0.00154727
0.00155802
0.00157462
0.00160147
0.00162279
0.00161361
0.00161054
0.00160847
0.00161086
0.00162136
0.00164201
0.00165705
0.001671
0.0016762
0.00167514
0.00167828
0.00167167
0.00166683
0.0016958
0.00171455
0.00176563
0.00179882
0.00185221
0.00189544
0.00193915
0.00199774
0.0020272
0.00207464
0.0021129
0.00212931
0.00218312
0.00216991
0.00222267
0.00217192
0.00205131
0.00205121
0.00210348
0.00221446
0.00228722
0.00241179
0.00247974
0.00258792
0.00270864
0.00280048
0.00294574
0.00156193
0.0015708
0.00156857
0.00157675
0.00157443
0.00157164
0.00156604
0.00156607
0.0015578
0.00154897
0.00155444
0.00156131
0.00156961
0.00157219
0.00157722
0.00158063
0.00159428
0.00161197
0.00162434
0.0016382
0.00165032
0.00164894
0.00166698
0.00166809
0.00165175
0.00163892
0.00163313
0.00164387
0.00164981
0.00165517
0.0016632
0.00166558
0.0016717
0.00167709
0.00168369
0.00169742
0.0017298
0.00173925
0.00175124
0.00174886
0.00176824
0.00176893
0.00180173
0.00181648
0.00186412
0.00189457
0.00195453
0.00198769
0.00205413
0.00208357
0.00213956
0.00219424
0.00218902
0.00229236
0.00228726
0.00226359
0.00222053
0.00212665
0.00214354
0.00224506
0.00231107
0.00243303
0.00247574
0.00259955
0.0026586
0.00279563
0.00289079
0.00301269
0.003142
0.00157448
0.00158081
0.00158802
0.00159664
0.00160849
0.00161713
0.00162158
0.00162278
0.00162622
0.00162715
0.00162196
0.00163372
0.00163618
0.00161664
0.00161413
0.00162755
0.00164403
0.00166005
0.00167124
0.00168456
0.00169139
0.00170331
0.00170955
0.00170404
0.00171229
0.0017495
0.00173747
0.00176497
0.00173755
0.00172707
0.00172524
0.00173044
0.00173778
0.00173633
0.00175716
0.00177091
0.00177073
0.0018188
0.00180819
0.00185036
0.00188446
0.00189956
0.00192966
0.00194517
0.0019784
0.00200318
0.00202888
0.00206165
0.00208064
0.00210911
0.00213915
0.00217404
0.00223664
0.00226005
0.00224626
0.00226191
0.00224241
0.0023261
0.00236566
0.00246459
0.00249804
0.00260986
0.00266042
0.00279768
0.00286491
0.00301841
0.0030938
0.00323953
0.00333077
0.00167043
0.00166961
0.00165935
0.00165538
0.00165944
0.00166572
0.00166803
0.00166334
0.00166945
0.00167905
0.00169197
0.00168664
0.00168817
0.00169949
0.00169622
0.00170841
0.00172185
0.00173005
0.00172885
0.00172555
0.00172949
0.00173044
0.00173116
0.00174654
0.00173591
0.00175254
0.00176867
0.00177871
0.00183118
0.00186065
0.00188773
0.00193926
0.00194374
0.0019138
0.00189771
0.00190672
0.00191572
0.00193629
0.00195698
0.00197079
0.00199873
0.00200287
0.00203257
0.00202788
0.0020556
0.00203911
0.0020582
0.00203431
0.00204734
0.00203001
0.00208212
0.00211843
0.00211707
0.00209985
0.00220801
0.00232437
0.00239437
0.00248854
0.00253994
0.00264238
0.00270055
0.00282391
0.00289274
0.00303085
0.00310621
0.00324629
0.0033183
0.00345146
0.003501
0.00174002
0.00174324
0.00173947
0.00174972
0.00173454
0.00173813
0.00171953
0.00171003
0.0017111
0.00170949
0.00170589
0.00171709
0.00173695
0.00175827
0.00177015
0.00178183
0.00178889
0.00179688
0.00179653
0.00180626
0.00183317
0.00187891
0.001854
0.00187786
0.00184626
0.00182653
0.00182194
0.00182353
0.00183459
0.0018224
0.00187365
0.00188205
0.00194067
0.00196885
0.0020115
0.00203097
0.00207385
0.00209854
0.00213148
0.00217955
0.00217519
0.00224793
0.00226064
0.00227234
0.00226924
0.00220611
0.00212758
0.00210456
0.00210923
0.00213032
0.00212157
0.00216332
0.0022328
0.00236392
0.0024514
0.00254411
0.00261313
0.00270601
0.00277678
0.00288227
0.0029601
0.00307766
0.00315965
0.00328084
0.00336023
0.00347073
0.00354226
0.0036302
0.00368169
0.00184623
0.00185497
0.00185712
0.00186661
0.00187076
0.00187734
0.00187839
0.00189608
0.00187591
0.00188311
0.00186446
0.00185349
0.00185477
0.00186318
0.00186448
0.00188252
0.00188424
0.00190975
0.00190351
0.00193131
0.00195907
0.00194906
0.00202185
0.00204705
0.0020677
0.00203718
0.00201282
0.00201402
0.00202184
0.00204331
0.0020723
0.00209232
0.00212012
0.00212955
0.00216704
0.00215643
0.00220059
0.00220768
0.00218622
0.00225704
0.00213298
0.00218968
0.00212365
0.00216986
0.00222034
0.00226595
0.00230857
0.00235605
0.00240293
0.00245734
0.00251245
0.00257527
0.00263132
0.00269526
0.00275433
0.00283024
0.00289977
0.00299058
0.00306926
0.00317185
0.00325407
0.00336087
0.00343812
0.00353897
0.00360245
0.00368719
0.00373436
0.00379089
0.0038267
0.00195031
0.00195745
0.00196257
0.00197064
0.00198319
0.00198938
0.00200018
0.00200564
0.00200072
0.0020263
0.00198498
0.00201473
0.00200307
0.0019935
0.00199523
0.00199691
0.00200752
0.00201509
0.00203282
0.00204011
0.00205965
0.00206698
0.00207732
0.00206303
0.002123
0.0021126
0.00218032
0.00221863
0.00226645
0.00229003
0.00233121
0.00234334
0.00238552
0.00238816
0.00235884
0.0022678
0.00224246
0.00218107
0.00210696
0.00211686
0.00213263
0.00216987
0.00228816
0.00238465
0.00245421
0.00251216
0.00256359
0.00261594
0.00266739
0.0027239
0.00278083
0.00284523
0.00291009
0.00298467
0.00305823
0.00314297
0.00322289
0.00331477
0.00339579
0.00348866
0.0035634
0.00364891
0.0037097
0.00378053
0.00382011
0.00387503
0.00388544
0.00393008
0.00390484
0.00207962
0.00208606
0.00209198
0.00209843
0.0021079
0.00211197
0.00212181
0.00212604
0.0021307
0.00214425
0.00213741
0.00214341
0.00215425
0.00217889
0.00216585
0.00222607
0.00224298
0.00221696
0.00221103
0.00220243
0.00220935
0.00220813
0.00222016
0.00221625
0.00223498
0.00222829
0.00225032
0.00223524
0.00225311
0.00222916
0.00224513
0.0022137
0.00223043
0.00219365
0.00221613
0.0022325
0.00233726
0.00232094
0.00243136
0.00251636
0.00258006
0.00263437
0.00268527
0.00273523
0.00278463
0.00283599
0.00288891
0.00294613
0.00300592
0.00307082
0.0031375
0.00320991
0.0032827
0.00336128
0.00343743
0.00351904
0.00359358
0.00367327
0.0037395
0.00381107
0.00386231
0.00391932
0.00395119
0.0039884
0.00399947
0.00401486
0.00400429
0.00400025
0.00396005
0.00226324
0.00227076
0.00227612
0.00228422
0.00228978
0.0022985
0.0023019
0.00231309
0.00231368
0.00232783
0.00232657
0.00233952
0.00233746
0.00235894
0.00235164
0.00237753
0.00236529
0.00239286
0.00237052
0.00240832
0.00242258
0.00247433
0.00253532
0.00263147
0.00269804
0.00271425
0.00279574
0.00271382
0.00278222
0.0026916
0.0026493
0.00263764
0.00265394
0.00267895
0.00271626
0.0027545
0.00279979
0.00284341
0.00289009
0.0029379
0.0029863
0.00303592
0.00308698
0.00314028
0.00319558
0.00325373
0.0033139
0.00337716
0.00344231
0.00351068
0.00357962
0.00365037
0.00371897
0.00378847
0.00385264
0.00391674
0.00397123
0.00402548
0.0040647
0.00410512
0.00412437
0.00414773
0.00414492
0.00414876
0.00412376
0.00410799
0.00405953
0.00402369
0.00394518
0.00252391
0.00253233
0.00253972
0.00254661
0.00255262
0.00255772
0.00256184
0.00256547
0.00256892
0.00257173
0.00257624
0.00257862
0.00258523
0.00258835
0.00259811
0.00260056
0.00261379
0.00261398
0.00263151
0.0026282
0.00265248
0.00264288
0.00267411
0.00265458
0.00268905
0.00271401
0.00275684
0.00286827
0.00296121
0.00302168
0.00306552
0.00310615
0.00314425
0.00318431
0.00322472
0.00326816
0.00331333
0.00336062
0.00340973
0.00346047
0.00351263
0.0035662
0.00362092
0.00367683
0.00373347
0.00379088
0.00384825
0.00390579
0.00396201
0.00401803
0.00407188
0.00412463
0.00417303
0.0042183
0.00425606
0.00429022
0.00431368
0.00433397
0.00433952
0.00434407
0.00432827
0.00431624
0.00427741
0.0042472
0.00418493
0.0041376
0.00404446
0.00398007
0.00384793
0.0029242
0.00294025
0.0029559
0.00297034
0.0029839
0.00299566
0.00300691
0.00301645
0.00302671
0.00303551
0.00304672
0.00305669
0.00307116
0.00308432
0.00310392
0.00312133
0.00314694
0.00316918
0.00320152
0.00322876
0.0032678
0.00329942
0.00334499
0.00338364
0.00343582
0.00348484
0.00353673
0.00359073
0.00364235
0.00369078
0.00373663
0.00378126
0.00382535
0.00386953
0.00391396
0.00395877
0.00400388
0.0040492
0.00409456
0.00413976
0.00418457
0.00422876
0.00427203
0.00431414
0.00435467
0.00439342
0.00442978
0.00446366
0.00449421
0.00452157
0.00454453
0.00456445
0.00457938
0.00459107
0.00459495
0.00459395
0.00458265
0.00456711
0.00453846
0.00450666
0.00445676
0.00440946
0.00433409
0.00426889
0.00416886
0.00408155
0.00394123
0.00384116
0.00363978
0.00352998
0.00355851
0.00358715
0.00361584
0.00364461
0.00367284
0.00370097
0.00372841
0.00375608
0.00378352
0.00381204
0.00384123
0.00387242
0.00390519
0.00394047
0.00397802
0.00401782
0.00406045
0.00410415
0.00415116
0.00419717
0.00424478
0.00428891
0.00433287
0.00437222
0.00441304
0.00445112
0.0044895
0.00452735
0.0045642
0.00459983
0.00463422
0.00466734
0.00469919
0.00472972
0.00475886
0.00478651
0.00481257
0.00483688
0.00485929
0.0048796
0.00489762
0.00491314
0.00492594
0.00493576
0.00494247
0.00494572
0.00494539
0.00494111
0.00493288
0.00492021
0.00490326
0.0048823
0.00485753
0.00482806
0.00479379
0.00475024
0.00470196
0.0046423
0.00457396
0.0044933
0.00440912
0.0042941
0.00419404
0.00404531
0.00390334
0.0037159
0.00356641
0.00327862
0.00450457
0.00454507
0.00458486
0.00462378
0.00466177
0.00469879
0.00473475
0.00476973
0.00480365
0.0048368
0.0048691
0.00490114
0.00493268
0.00496447
0.00499595
0.00502793
0.00505947
0.00509128
0.00512242
0.00515297
0.00518255
0.00521134
0.00523891
0.00526526
0.00529001
0.00531325
0.00533479
0.00535464
0.00537275
0.00538903
0.00540341
0.00541581
0.00542615
0.00543435
0.00544032
0.00544394
0.00544511
0.00544376
0.00543973
0.00543298
0.00542333
0.00541056
0.00539461
0.00537533
0.00535263
0.00532666
0.005297
0.00526356
0.0052266
0.00518586
0.00514175
0.00509406
0.00504355
0.00498811
0.00493058
0.00486837
0.00479857
0.00472197
0.00463308
0.00452059
0.00441811
0.00428543
0.00412707
0.0039832
0.00374912
0.00354133
0.00332678
0.00312777
0.00277652
0.00541802
0.0054475
0.0054765
0.00550517
0.00553338
0.00556102
0.00558799
0.00561421
0.00563959
0.00566408
0.00568765
0.00571035
0.00573215
0.00575312
0.00577322
0.0057925
0.00581087
0.00582859
0.00584522
0.0058608
0.00587495
0.00588749
0.00589847
0.00590756
0.00591475
0.00591989
0.00592305
0.00592407
0.00592285
0.00591935
0.00591349
0.00590527
0.0058946
0.00588146
0.00586567
0.00584718
0.00582582
0.00580161
0.00577428
0.00574418
0.00571026
0.00567234
0.00563109
0.00558603
0.00553775
0.00548675
0.00543096
0.00537069
0.00531048
0.00524529
0.00518134
0.00511135
0.00504523
0.00496514
0.00489125
0.00480804
0.00471951
0.00461111
0.00447669
0.004298
0.00416611
0.00393601
0.00370326
0.00346718
0.0031526
0.00295133
0.0026571
0.00241913
0.00198794
0.00588228
0.00590435
0.00592552
0.00594589
0.00596541
0.00598403
0.00600171
0.00601838
0.00603395
0.00604838
0.00606163
0.00607378
0.00608478
0.00609459
0.00610312
0.00611059
0.00611685
0.006125
0.00612997
0.00613559
0.00613765
0.00613708
0.00613672
0.00613278
0.0061276
0.00612
0.00611229
0.006102
0.00608891
0.00607315
0.00605441
0.00603314
0.00600903
0.00598238
0.00595238
0.00591953
0.0058834
0.00584475
0.005803
0.00575955
0.00570643
0.00564835
0.00559055
0.00552643
0.00546247
0.00539552
0.00531522
0.0052312
0.0051844
0.00508974
0.00504051
0.00493125
0.00488397
0.00477899
0.00465536
0.00450571
0.00434118
0.00413581
0.00390671
0.00366177
0.00341614
0.00316846
0.00289847
0.00266451
0.00241641
0.00211442
0.00186116
0.00166562
0.00140401
0.00588128
0.005894
0.00590534
0.00591552
0.00592477
0.005933
0.00594041
0.00594633
0.00595075
0.00595403
0.0059555
0.00595689
0.00595718
0.00595602
0.00595324
0.00595034
0.00594382
0.0059709
0.00595182
0.00597
0.00594624
0.00592518
0.00593703
0.0059104
0.0058985
0.00588196
0.00589541
0.00588633
0.00587197
0.0058539
0.00583025
0.00580522
0.00577538
0.00574339
0.00570255
0.00565994
0.00561335
0.00556701
0.0055181
0.00545903
0.00536201
0.00526985
0.00520415
0.00510015
0.00502187
0.00492613
0.00480028
0.00471446
0.00460224
0.0044738
0.00434425
0.00420867
0.0040676
0.00391261
0.00375303
0.00357055
0.00338971
0.00318035
0.00296816
0.00273787
0.00253544
0.0023027
0.0020793
0.00182055
0.00172866
0.00143071
0.00137344
0.00133971
0.00157324
0.00539474
0.00540002
0.00539305
0.00538803
0.00538506
0.00538149
0.00538525
0.00538007
0.00537421
0.00536841
0.00534782
0.00534849
0.00534037
0.00532918
0.00531412
0.00530109
0.00526294
0.00522042
0.00518442
0.00512934
0.00508876
0.00507267
0.00502431
0.00500463
0.0049793
0.00494103
0.00491039
0.00483853
0.00478496
0.00473411
0.00468301
0.00466061
0.00462303
0.00458902
0.00450115
0.00443767
0.0043737
0.00434082
0.00429682
0.00423849
0.00417491
0.00410409
0.00403904
0.00390662
0.00384325
0.00377164
0.00368977
0.00359837
0.00349543
0.00338401
0.00326615
0.00313978
0.00300694
0.00286628
0.00271028
0.00254242
0.00239188
0.00217613
0.00199637
0.00182715
0.00167892
0.00147965
0.00135492
0.00127606
0.00117861
0.00129194
0.00150117
0.00188088
0.0022753
0.0041956
0.00418039
0.00415404
0.00413555
0.00411931
0.00411469
0.0040889
0.00407973
0.00406401
0.00403131
0.0040069
0.00398523
0.00397521
0.00395765
0.00392244
0.00389763
0.00388612
0.00384768
0.00382511
0.00379722
0.00375004
0.00371059
0.00367449
0.0036548
0.00362294
0.00358375
0.00354501
0.00348802
0.00344211
0.00339784
0.00337192
0.00332911
0.00328837
0.00322524
0.00317513
0.0031278
0.00310703
0.00307271
0.00302895
0.00294966
0.00289162
0.00283442
0.00277896
0.00271725
0.00264837
0.00257049
0.00248427
0.00239067
0.00229047
0.00218526
0.00207257
0.00195917
0.00184431
0.00173457
0.00161413
0.00151887
0.00142886
0.00124478
0.00113204
0.00107121
0.00104522
0.00106112
0.00112042
0.00122267
0.00143525
0.00165511
0.00195302
0.00215413
0.00256268
0.00225132
0.00223898
0.0022268
0.00221135
0.00219042
0.0021742
0.00215839
0.00215122
0.00213975
0.00211773
0.0021013
0.00209259
0.00207968
0.0020562
0.00203809
0.00202985
0.00200776
0.00199547
0.00197968
0.00195486
0.00194207
0.00191572
0.00190194
0.00187536
0.00185996
0.00183232
0.00180596
0.00177949
0.00175316
0.00172669
0.00170024
0.00167339
0.00164627
0.00161697
0.00158455
0.00154856
0.00152585
0.00147572
0.00145241
0.00139014
0.00136199
0.00129535
0.00125941
0.00121753
0.00117189
0.00112325
0.00107461
0.00102748
0.000976511
0.000941701
0.000892811
0.000893703
0.000844093
0.000878779
0.000833215
0.000918959
0.000845931
0.000844921
0.0008693
0.00091968
0.000995204
0.00108697
0.00120084
0.00137954
0.00154742
0.00180085
0.00183272
0.00186071
0.0020128
0.000413065
0.000411357
0.000412905
0.000412998
0.000416632
0.000415335
0.000417154
0.000419083
0.000419256
0.00042573
0.000428132
0.000424936
0.000425326
0.000425178
0.00043133
0.000428872
0.000434271
0.000430774
0.000435476
0.00043477
0.000440657
0.000439945
0.00044407
0.00043995
0.000443866
0.000444567
0.000445213
0.000445819
0.000446335
0.000446796
0.000447245
0.000447697
0.000448148
0.000448581
0.000448983
0.000449314
0.000449591
0.000449763
0.00044986
0.000449831
0.000449689
0.000449412
0.000448994
0.000448385
0.000447583
0.000446507
0.000445112
0.000443338
0.000440959
0.000438072
0.000434081
0.000429437
0.000422905
0.000414682
0.000403114
0.000389554
0.000367119
0.00033507
0.000279296
0.000262581
0.000360131
0.000401375
0.000398903
0.000386809
0.000371769
0.000349616
0.00033496
0.000333423
0.000332309
0.00131473
0.00131547
0.00131363
0.00131266
0.00131178
0.00130997
0.00130994
0.00130895
0.00130777
0.0013055
0.00130395
0.00130147
0.00130419
0.00130309
0.00130233
0.00130027
0.00130284
0.00130359
0.00130559
0.00130695
0.00130834
0.00131153
0.00131262
0.00131334
0.00131479
0.00131636
0.00131972
0.00132479
0.00132842
0.00132786
0.00132603
0.00132615
0.00132651
0.00132908
0.00133151
0.00133173
0.00133252
0.00133301
0.00133175
0.00133214
0.00133011
0.00133101
0.00133127
0.00133298
0.00133535
0.00133561
0.00133173
0.00133158
0.00133155
0.00133627
0.00133596
0.00133679
0.00133782
0.00133791
0.00133804
0.00133969
0.00133932
0.00133719
0.00133879
0.00131839
0.00131678
0.00131618
0.00131721
0.00131727
0.00131562
0.00131508
0.00131279
0.00131229
0.00130972
0.00130826
0.0013072
0.00130807
0.00130658
0.00130618
0.00130642
0.00130973
0.00131066
0.00131217
0.00131345
0.00131518
0.00131832
0.00131883
0.0013198
0.00132117
0.00132285
0.00132623
0.00133132
0.00133451
0.00133421
0.00133276
0.00133266
0.00133315
0.00133453
0.00133732
0.00133864
0.00133928
0.00133944
0.00133913
0.00133944
0.00133885
0.00133879
0.00133937
0.0013394
0.00134047
0.00134295
0.00134052
0.00133925
0.00133806
0.00133832
0.00134292
0.00134634
0.00134883
0.00134998
0.00135058
0.00134788
0.0013494
0.00134903
0.00134757
0.00131957
0.00132036
0.00131999
0.00132019
0.00132086
0.00131954
0.00131919
0.00131808
0.00131663
0.00131542
0.00131468
0.00131331
0.00131339
0.00131306
0.00131335
0.00131602
0.0013176
0.00131866
0.00131984
0.00132118
0.00132421
0.00132635
0.00132644
0.00132735
0.00132854
0.00133032
0.00133371
0.0013387
0.00134164
0.00134145
0.0013404
0.00134027
0.00134013
0.00134217
0.00134474
0.00134614
0.00134682
0.00134871
0.00134821
0.00134768
0.00134616
0.00134729
0.00134706
0.00134754
0.00134769
0.0013504
0.00135055
0.0013506
0.00134935
0.00134819
0.00134854
0.00135116
0.00135632
0.00135845
0.00136278
0.0013648
0.00136634
0.00136475
0.00136564
0.00132729
0.00132657
0.00132602
0.00132523
0.00132522
0.00132436
0.0013242
0.00132324
0.00132245
0.00132195
0.00132137
0.00132105
0.00132122
0.00132167
0.0013234
0.00132563
0.00132674
0.00132763
0.00132904
0.00133107
0.00133366
0.00133517
0.00133516
0.00133593
0.00133714
0.00133918
0.00134251
0.00134728
0.00134997
0.00134992
0.00134928
0.00134891
0.0013494
0.00134997
0.00135263
0.00135526
0.00135586
0.00135628
0.00135772
0.00135849
0.00135751
0.00135917
0.00135916
0.00135899
0.00135797
0.00135823
0.00135737
0.00135815
0.00135925
0.00135998
0.00135981
0.00136019
0.00135891
0.00136341
0.00136638
0.00136934
0.00137384
0.00137434
0.00137818
0.0013307
0.00132978
0.00132952
0.00132989
0.00133134
0.00133263
0.00133479
0.00133374
0.00133263
0.00133254
0.00133217
0.00133156
0.00133169
0.00133282
0.00133463
0.00133621
0.00133699
0.00133793
0.00133951
0.00134181
0.00134366
0.00134481
0.00134496
0.00134567
0.00134696
0.0013493
0.00135268
0.00135723
0.00135975
0.00135992
0.00135958
0.00135932
0.00135903
0.00136171
0.00136224
0.0013642
0.00136608
0.00136969
0.00136911
0.00136875
0.0013683
0.00136849
0.00136943
0.00137082
0.00137285
0.0013748
0.00137504
0.00137197
0.00136885
0.00137248
0.00137566
0.00137799
0.0013797
0.00137868
0.0013785
0.00138226
0.00138677
0.00138718
0.00139047
0.00133943
0.00134082
0.00134035
0.0013403
0.00134172
0.00134233
0.00134494
0.0013441
0.00134306
0.00134334
0.0013436
0.0013438
0.00134466
0.00134608
0.00134754
0.00134875
0.00134955
0.00135061
0.00135242
0.00135441
0.00135585
0.00135682
0.00135697
0.00135768
0.00135898
0.00136151
0.00136488
0.00136914
0.00137151
0.00137189
0.00137181
0.00137148
0.00137181
0.00137214
0.00137509
0.00137833
0.00137823
0.0013794
0.0013821
0.00138539
0.00138454
0.00138375
0.00138511
0.00138374
0.00138453
0.00138604
0.00139234
0.00139568
0.00139275
0.00138796
0.0013873
0.00139057
0.00139352
0.00139917
0.00140021
0.00140291
0.00140201
0.00140394
0.00140411
0.0013523
0.00135329
0.00135377
0.00135374
0.0013556
0.00135861
0.00135804
0.00135704
0.00135895
0.00135961
0.00135956
0.00136005
0.00136045
0.00136137
0.00136223
0.00136318
0.00136389
0.00136509
0.0013668
0.00136816
0.00136933
0.0013703
0.00137055
0.00137132
0.00137281
0.00137564
0.00137905
0.00138308
0.00138542
0.00138606
0.00138623
0.00138608
0.00138577
0.00138828
0.001388
0.00139201
0.001395
0.00139722
0.00139574
0.00139633
0.00140119
0.00140084
0.00140344
0.00140403
0.00140368
0.00140269
0.00140433
0.00140749
0.00141043
0.00141225
0.00140995
0.00140872
0.00140867
0.00140887
0.00141258
0.00141699
0.00141813
0.00142002
0.00142248
0.00137545
0.00137416
0.00137406
0.00137338
0.00137375
0.00137603
0.00137513
0.00137579
0.00137599
0.00137487
0.00137686
0.00137645
0.00137856
0.00137905
0.00138044
0.00138105
0.00138163
0.00138287
0.00138409
0.00138523
0.00138614
0.00138692
0.00138746
0.00138838
0.00138995
0.00139291
0.00139626
0.0014
0.00140231
0.00140317
0.00140358
0.00140353
0.00140366
0.00140407
0.00140797
0.00140978
0.00141058
0.00141401
0.00142027
0.00141852
0.00141688
0.00142096
0.00142372
0.00142154
0.00142063
0.00142191
0.00142366
0.00142561
0.00142726
0.00143082
0.00143248
0.00143716
0.00143875
0.00144257
0.00144628
0.00144727
0.00144305
0.00144504
0.00144708
0.0013916
0.00139169
0.00139163
0.00139116
0.00139332
0.00139393
0.00139604
0.00139635
0.00139603
0.00139769
0.00139673
0.0013981
0.0013971
0.00139857
0.00139923
0.00140035
0.00140132
0.00140231
0.00140315
0.00140426
0.00140505
0.00140584
0.00140666
0.00140783
0.00140969
0.00141282
0.00141632
0.00141987
0.00142229
0.00142343
0.00142413
0.00142429
0.00142437
0.00142591
0.00142517
0.00143055
0.00143574
0.00143468
0.00143814
0.0014436
0.00144499
0.00144335
0.00144563
0.00144685
0.00144952
0.00144878
0.00145136
0.00144771
0.00144724
0.00145019
0.00145205
0.00145589
0.00145759
0.00146264
0.00146257
0.00147066
0.00147109
0.00147443
0.00148023
0.00141126
0.00141577
0.00141871
0.00142092
0.00142068
0.00142231
0.00142014
0.00141672
0.00142116
0.00142077
0.00141911
0.00142275
0.00142248
0.0014237
0.00142327
0.00142505
0.00142492
0.0014271
0.00142724
0.00142838
0.00142917
0.00143008
0.00143108
0.00143245
0.0014344
0.00143766
0.00144102
0.00144431
0.0014468
0.00144819
0.00144914
0.00144955
0.00144995
0.0014508
0.0014543
0.00145211
0.00146084
0.00146677
0.00146627
0.00146828
0.00147148
0.00147218
0.00147388
0.00147817
0.0014784
0.00147834
0.00148374
0.00148782
0.00148419
0.00148437
0.00148554
0.00148311
0.00148563
0.00148849
0.00149094
0.00149584
0.00150288
0.00150524
0.00150385
0.00148046
0.00147839
0.00147671
0.0014747
0.00147147
0.001468
0.00146323
0.00146071
0.00145859
0.00145501
0.0014528
0.00145114
0.00144902
0.0014526
0.0014508
0.00145379
0.00145255
0.0014544
0.00145488
0.00145586
0.00145674
0.00145763
0.00145889
0.00146061
0.00146288
0.00146637
0.00146978
0.00147306
0.0014758
0.00147759
0.00147888
0.00147957
0.0014802
0.00148117
0.00148286
0.00148717
0.00148543
0.00149542
0.00149983
0.00150432
0.00150633
0.00150653
0.00150581
0.00151233
0.00150704
0.00150862
0.00151381
0.00151927
0.00152201
0.0015236
0.00152655
0.00153072
0.00153713
0.00153815
0.0015291
0.00153012
0.00153931
0.0015469
0.00155684
0.00151783
0.00151519
0.00151253
0.00150978
0.00150706
0.00150406
0.00150171
0.00150005
0.00149951
0.00149668
0.0014944
0.00149252
0.00148826
0.0014862