/*--------------------------------*- C++ -*----------------------------------*\
| =========                 |                                                 |
| \\      /  F ield         | OpenFOAM: The Open Source CFD Toolbox           |
|  \\    /   O peration     | Version:  2312                                  |
|   \\  /    A nd           | Website:  www.openfoam.com                      |
|    \\/     M anipulation  |                                                 |
\*---------------------------------------------------------------------------*/
FoamFile
{
    version     2.0;
    format      ascii;
    arch        "LSB;label=32;scalar=64";
    class       volScalarField;
    location    "1900";
    object      p;
}
// * * * * * * * * * * * * * * * * * * * * * * * * * * * * * * * * * * * * * //

dimensions      [0 2 -2 0 0 0 0];

internalField   nonuniform List<scalar> 
76025
(
-0.0438046
-0.0503445
-0.0570238
-0.0637469
-0.0703986
-0.0771491
-0.0840906
-0.0907894
-0.0976524
-0.104385
-0.111151
-0.117935
-0.124746
-0.131508
-0.138331
-0.145078
-0.151674
-0.158273
-0.164867
-0.171287
-0.17758
-0.183912
-0.190083
-0.196074
-0.201967
-0.207661
-0.21345
-0.219098
-0.224296
-0.229636
-0.234502
-0.239141
-0.243914
-0.248476
-0.252783
-0.256736
-0.260284
-0.264026
-0.267455
-0.270671
-0.273473
-0.276028
-0.278826
-0.281278
-0.283431
-0.285144
-0.286856
-0.288465
-0.289538
-0.290475
-0.291345
-0.291895
-0.292414
-0.292995
-0.293408
-0.293125
-0.293311
-0.293055
-0.292831
-0.292584
-0.292156
-0.291775
-0.291661
-0.291613
-0.291402
-0.2909
-0.290901
-0.291663
-0.292356
-0.0474203
-0.0543424
-0.0613116
-0.0683499
-0.0754266
-0.0825492
-0.0896642
-0.0967856
-0.103937
-0.111081
-0.118241
-0.125392
-0.132532
-0.139644
-0.146689
-0.153661
-0.160624
-0.167483
-0.17433
-0.181028
-0.187684
-0.194207
-0.200608
-0.206866
-0.21303
-0.219085
-0.225009
-0.230687
-0.236158
-0.241466
-0.246583
-0.251636
-0.256495
-0.261051
-0.265411
-0.269504
-0.273392
-0.277079
-0.280532
-0.283797
-0.286759
-0.289517
-0.292097
-0.294394
-0.296456
-0.29827
-0.299917
-0.301347
-0.302513
-0.303521
-0.304385
-0.305042
-0.305587
-0.306041
-0.306312
-0.306367
-0.30646
-0.306402
-0.306236
-0.306015
-0.305869
-0.305815
-0.305729
-0.305733
-0.30577
-0.305869
-0.30621
-0.306986
-0.30761
-0.0513572
-0.0586174
-0.0659376
-0.0733445
-0.0807994
-0.0882487
-0.095707
-0.103193
-0.110698
-0.118217
-0.12573
-0.133221
-0.140682
-0.1481
-0.155453
-0.162766
-0.170021
-0.177208
-0.184313
-0.191329
-0.19824
-0.205025
-0.211689
-0.218226
-0.224632
-0.230891
-0.23696
-0.242834
-0.248527
-0.25403
-0.259373
-0.264534
-0.269443
-0.274106
-0.278546
-0.282754
-0.28672
-0.290442
-0.293938
-0.297194
-0.300185
-0.302925
-0.305442
-0.307745
-0.309825
-0.311674
-0.3133
-0.314717
-0.315914
-0.31691
-0.317731
-0.318384
-0.318898
-0.319299
-0.31958
-0.319728
-0.319804
-0.319813
-0.319763
-0.31971
-0.319706
-0.31977
-0.319889
-0.320126
-0.320479
-0.320963
-0.32162
-0.322702
-0.323568
-0.0555175
-0.0631452
-0.070843
-0.0786287
-0.0864517
-0.09428
-0.102119
-0.109977
-0.117846
-0.125718
-0.133578
-0.141415
-0.149218
-0.15698
-0.16469
-0.172344
-0.17993
-0.187436
-0.19485
-0.202163
-0.20936
-0.216434
-0.223374
-0.23017
-0.236808
-0.243277
-0.249565
-0.255665
-0.261569
-0.26727
-0.272764
-0.278034
-0.283068
-0.287861
-0.292412
-0.296715
-0.300764
-0.304558
-0.308101
-0.311384
-0.314403
-0.317166
-0.319692
-0.321988
-0.324048
-0.325867
-0.327453
-0.32882
-0.32997
-0.330919
-0.331694
-0.332314
-0.332797
-0.333165
-0.333428
-0.333593
-0.333692
-0.333756
-0.333801
-0.333866
-0.333991
-0.334209
-0.334532
-0.334994
-0.335615
-0.336436
-0.337457
-0.338904
-0.340131
-0.0600591
-0.0680807
-0.0761736
-0.0843579
-0.0925795
-0.100808
-0.109045
-0.117295
-0.125553
-0.133809
-0.142049
-0.150263
-0.158441
-0.166573
-0.174649
-0.182658
-0.190589
-0.198432
-0.206174
-0.213804
-0.22131
-0.228681
-0.235905
-0.242968
-0.249861
-0.256573
-0.263094
-0.269411
-0.275515
-0.281397
-0.28705
-0.292466
-0.297636
-0.30255
-0.307203
-0.31159
-0.315708
-0.319552
-0.323122
-0.326418
-0.329439
-0.332192
-0.334689
-0.336939
-0.338942
-0.340701
-0.342224
-0.343525
-0.344612
-0.345503
-0.346219
-0.34678
-0.347208
-0.347524
-0.347748
-0.3479
-0.34801
-0.34811
-0.348225
-0.348388
-0.348639
-0.349008
-0.349519
-0.350206
-0.351097
-0.352248
-0.353647
-0.355531
-0.35731
-0.065076
-0.0735167
-0.0820295
-0.0906372
-0.0992826
-0.107933
-0.116589
-0.125257
-0.133931
-0.142598
-0.151246
-0.159863
-0.168437
-0.176959
-0.185416
-0.193798
-0.202093
-0.210288
-0.218372
-0.226333
-0.234158
-0.241834
-0.249349
-0.256692
-0.263851
-0.270814
-0.27757
-0.284104
-0.290408
-0.296473
-0.302289
-0.30785
-0.313145
-0.318167
-0.322907
-0.327364
-0.331533
-0.335411
-0.338997
-0.34229
-0.345294
-0.348015
-0.350464
-0.352652
-0.354584
-0.356266
-0.357707
-0.358921
-0.359919
-0.360721
-0.361349
-0.361824
-0.362168
-0.362409
-0.362572
-0.362686
-0.362785
-0.3629
-0.363063
-0.363308
-0.36367
-0.364181
-0.364867
-0.365768
-0.366923
-0.368394
-0.37017
-0.372505
-0.37482
-0.0706053
-0.079492
-0.0884525
-0.0975106
-0.106606
-0.115703
-0.124803
-0.133912
-0.143025
-0.152128
-0.161205
-0.170245
-0.179236
-0.188168
-0.197027
-0.205802
-0.21448
-0.223047
-0.23149
-0.239798
-0.247955
-0.25595
-0.263771
-0.271403
-0.278834
-0.286052
-0.293045
-0.2998
-0.306306
-0.312554
-0.318533
-0.324235
-0.32965
-0.334772
-0.339594
-0.344111
-0.34832
-0.352219
-0.355809
-0.35909
-0.362063
-0.364735
-0.367117
-0.369222
-0.371059
-0.372635
-0.373961
-0.375051
-0.375923
-0.376601
-0.377107
-0.377462
-0.377695
-0.377836
-0.377917
-0.377971
-0.378034
-0.378141
-0.378327
-0.378625
-0.37907
-0.379694
-0.380535
-0.38164
-0.383055
-0.384839
-0.386987
-0.389748
-0.392482
-0.0767048
-0.0860645
-0.0954997
-0.105036
-0.11461
-0.124183
-0.133755
-0.143333
-0.152911
-0.162473
-0.172005
-0.181492
-0.190924
-0.200288
-0.209572
-0.218761
-0.227842
-0.2368
-0.245622
-0.254293
-0.262801
-0.271133
-0.279273
-0.287207
-0.294922
-0.302403
-0.309638
-0.316616
-0.323325
-0.329754
-0.335893
-0.341734
-0.347265
-0.35248
-0.357373
-0.361936
-0.366171
-0.370076
-0.373652
-0.376901
-0.379823
-0.382424
-0.384714
-0.386709
-0.388421
-0.389857
-0.391033
-0.391965
-0.392677
-0.393192
-0.393533
-0.393732
-0.393822
-0.393835
-0.393806
-0.393771
-0.393768
-0.393834
-0.394007
-0.394321
-0.394811
-0.395523
-0.396501
-0.397801
-0.399467
-0.401561
-0.404079
-0.407245
-0.410386
-0.0834513
-0.0933156
-0.103256
-0.113302
-0.123385
-0.133464
-0.143539
-0.153616
-0.163689
-0.173741
-0.183757
-0.193722
-0.203622
-0.213446
-0.223178
-0.232804
-0.242308
-0.251676
-0.260895
-0.269949
-0.278823
-0.287505
-0.295978
-0.304226
-0.312236
-0.319991
-0.327476
-0.33468
-0.341593
-0.348203
-0.354501
-0.360473
-0.366113
-0.37141
-0.376357
-0.380952
-0.385194
-0.389082
-0.392618
-0.395805
-0.398646
-0.401144
-0.403311
-0.405162
-0.40671
-0.40797
-0.408958
-0.409695
-0.410209
-0.410523
-0.410673
-0.410688
-0.4106
-0.410447
-0.410263
-0.410092
-0.409978
-0.409961
-0.410076
-0.410363
-0.410869
-0.411643
-0.412738
-0.414212
-0.416111
-0.418513
-0.421417
-0.425043
-0.428804
-0.0909321
-0.101335
-0.111814
-0.122401
-0.133025
-0.143641
-0.154251
-0.164859
-0.17546
-0.186035
-0.196568
-0.207041
-0.217442
-0.227755
-0.237964
-0.248055
-0.258011
-0.267815
-0.277455
-0.286912
-0.296171
-0.305216
-0.314032
-0.322603
-0.330915
-0.33895
-0.346694
-0.354132
-0.361253
-0.368043
-0.374491
-0.380588
-0.386323
-0.391689
-0.396679
-0.401289
-0.405517
-0.409365
-0.412832
-0.415923
-0.418639
-0.420987
-0.422983
-0.424641
-0.42598
-0.427017
-0.427773
-0.42827
-0.428542
-0.428616
-0.428531
-0.428315
-0.428007
-0.427643
-0.427267
-0.426928
-0.426664
-0.426513
-0.426519
-0.426733
-0.427211
-0.428012
-0.429194
-0.430813
-0.432927
-0.435617
-0.438906
-0.443076
-0.447637
-0.0992482
-0.110227
-0.121282
-0.132447
-0.143647
-0.154835
-0.166012
-0.177184
-0.188343
-0.199472
-0.210553
-0.221566
-0.232497
-0.243329
-0.254046
-0.264631
-0.275066
-0.285335
-0.295422
-0.305307
-0.314975
-0.324406
-0.333584
-0.342495
-0.35112
-0.359442
-0.367447
-0.375122
-0.38245
-0.389417
-0.396013
-0.402225
-0.408046
-0.413468
-0.418485
-0.423091
-0.427286
-0.431064
-0.43443
-0.437384
-0.439931
-0.44208
-0.443849
-0.445261
-0.446337
-0.447098
-0.447568
-0.447772
-0.447747
-0.447528
-0.447143
-0.446636
-0.446049
-0.445424
-0.444808
-0.444242
-0.443763
-0.443419
-0.443265
-0.443368
-0.443787
-0.444585
-0.445818
-0.44755
-0.449842
-0.452787
-0.456407
-0.46106
-0.466163
-0.108516
-0.120108
-0.131777
-0.143562
-0.15538
-0.167181
-0.178966
-0.19074
-0.202494
-0.214212
-0.225873
-0.237458
-0.248951
-0.260331
-0.271582
-0.282687
-0.293627
-0.304386
-0.314947
-0.325287
-0.335388
-0.34523
-0.354795
-0.364066
-0.373023
-0.381649
-0.389928
-0.397843
-0.405378
-0.412517
-0.419251
-0.425566
-0.431455
-0.436911
-0.44193
-0.446505
-0.450631
-0.454306
-0.457532
-0.460312
-0.462649
-0.464555
-0.466051
-0.467165
-0.46792
-0.468343
-0.468462
-0.468308
-0.467918
-0.467327
-0.466575
-0.465707
-0.464768
-0.463807
-0.462864
-0.461983
-0.461217
-0.460629
-0.460278
-0.460232
-0.460552
-0.461301
-0.462542
-0.464345
-0.466779
-0.46994
-0.473844
-0.478818
-0.483914
-0.118857
-0.131104
-0.143428
-0.155871
-0.168348
-0.180805
-0.193242
-0.205662
-0.218058
-0.230411
-0.242695
-0.254891
-0.26698
-0.278942
-0.290762
-0.302421
-0.3139
-0.325179
-0.336236
-0.34705
-0.3576
-0.367866
-0.377831
-0.387472
-0.396772
-0.405712
-0.414274
-0.422437
-0.430184
-0.437502
-0.444376
-0.450793
-0.456742
-0.462216
-0.46721
-0.47172
-0.475741
-0.479273
-0.482317
-0.484875
-0.486955
-0.488567
-0.489737
-0.490496
-0.49087
-0.490891
-0.49059
-0.49
-0.489154
-0.488099
-0.486887
-0.485564
-0.484176
-0.482773
-0.481408
-0.480142
-0.479032
-0.478143
-0.477538
-0.477282
-0.477441
-0.478084
-0.479283
-0.481111
-0.483648
-0.486987
-0.491168
-0.496467
-0.502127
-0.130464
-0.143411
-0.156433
-0.169577
-0.182754
-0.195907
-0.209032
-0.222137
-0.235213
-0.248239
-0.261186
-0.274036
-0.286765
-0.299357
-0.311793
-0.324047
-0.336104
-0.347937
-0.359522
-0.37084
-0.381867
-0.392585
-0.402969
-0.412995
-0.422644
-0.431898
-0.440738
-0.449145
-0.457101
-0.464587
-0.471588
-0.478094
-0.484087
-0.48956
-0.494508
-0.498927
-0.502812
-0.506165
-0.508992
-0.511289
-0.513069
-0.514343
-0.515136
-0.515473
-0.515387
-0.514916
-0.514089
-0.51295
-0.511538
-0.509909
-0.508117
-0.506219
-0.504269
-0.502329
-0.500462
-0.498732
-0.497199
-0.495929
-0.494989
-0.494449
-0.49438
-0.494856
-0.495955
-0.497754
-0.500339
-0.503801
-0.508192
-0.513804
-0.51998
-0.143515
-0.15722
-0.171
-0.184904
-0.198837
-0.212736
-0.226599
-0.240436
-0.254236
-0.267974
-0.281626
-0.295169
-0.308579
-0.321839
-0.334925
-0.347815
-0.360485
-0.372909
-0.385063
-0.396923
-0.408467
-0.419668
-0.430503
-0.440946
-0.450971
-0.460555
-0.469679
-0.478324
-0.486473
-0.494107
-0.501214
-0.507777
-0.513787
-0.519233
-0.524107
-0.528401
-0.532115
-0.53525
-0.537804
-0.539784
-0.541189
-0.542037
-0.54235
-0.54216
-0.541508
-0.54043
-0.538967
-0.53717
-0.53509
-0.532782
-0.530305
-0.527728
-0.525118
-0.522543
-0.520071
-0.517769
-0.515706
-0.513953
-0.512584
-0.511671
-0.511292
-0.511525
-0.51245
-0.51415
-0.516712
-0.520229
-0.524759
-0.530492
-0.537109
-0.158167
-0.172685
-0.187276
-0.201997
-0.216746
-0.231455
-0.246121
-0.260753
-0.275338
-0.289847
-0.304258
-0.318543
-0.332678
-0.346641
-0.360411
-0.373967
-0.38728
-0.400326
-0.413078
-0.425508
-0.437591
-0.449297
-0.460603
-0.471477
-0.481895
-0.491832
-0.501265
-0.510176
-0.518545
-0.526357
-0.53359
-0.540226
-0.546253
-0.551656
-0.556422
-0.560542
-0.564017
-0.566844
-0.569024
-0.570567
-0.571478
-0.571773
-0.571486
-0.570656
-0.569324
-0.567533
-0.565329
-0.562764
-0.559897
-0.556791
-0.553516
-0.550143
-0.546748
-0.543408
-0.540199
-0.537199
-0.534486
-0.532138
-0.530232
-0.528848
-0.528064
-0.52796
-0.528621
-0.530133
-0.532586
-0.536083
-0.540686
-0.546537
-0.553157
-0.174709
-0.190091
-0.20555
-0.221144
-0.236766
-0.252343
-0.267873
-0.283361
-0.298794
-0.314142
-0.329378
-0.344471
-0.359395
-0.374131
-0.388654
-0.402936
-0.416952
-0.430671
-0.444065
-0.457103
-0.469754
-0.48199
-0.49378
-0.505095
-0.515911
-0.526207
-0.535954
-0.545133
-0.553726
-0.561707
-0.569053
-0.575739
-0.581747
-0.587058
-0.591659
-0.595544
-0.598708
-0.601151
-0.602882
-0.603907
-0.604237
-0.603892
-0.602909
-0.601326
-0.59919
-0.596546
-0.593449
-0.589958
-0.586139
-0.582068
-0.577822
-0.573485
-0.569143
-0.564883
-0.560791
-0.556955
-0.553461
-0.550391
-0.547829
-0.545855
-0.544549
-0.543995
-0.544276
-0.545483
-0.547716
-0.55109
-0.555707
-0.561804
-0.569114
-0.193485
-0.209794
-0.226177
-0.242701
-0.259251
-0.275749
-0.292195
-0.308594
-0.324929
-0.341172
-0.357288
-0.373248
-0.389028
-0.404602
-0.419939
-0.435012
-0.449787
-0.464235
-0.478322
-0.49202
-0.505297
-0.518123
-0.530464
-0.542288
-0.553566
-0.564265
-0.574359
-0.583819
-0.592619
-0.600732
-0.608136
-0.614809
-0.62073
-0.625885
-0.630259
-0.633846
-0.636639
-0.638639
-0.63985
-0.640275
-0.639924
-0.63882
-0.637
-0.634511
-0.631402
-0.627729
-0.623553
-0.618943
-0.613978
-0.608743
-0.603329
-0.597832
-0.592351
-0.586985
-0.581833
-0.576991
-0.572551
-0.568604
-0.565235
-0.562526
-0.560557
-0.55941
-0.55917
-0.559928
-0.561789
-0.564885
-0.569342
-0.575439
-0.583066
-0.214926
-0.232234
-0.249615
-0.267141
-0.284689
-0.302179
-0.319607
-0.33698
-0.354279
-0.371474
-0.38853
-0.405414
-0.422098
-0.438553
-0.454748
-0.470651
-0.486229
-0.501447
-0.516273
-0.530673
-0.544617
-0.558069
-0.570996
-0.583361
-0.595131
-0.606267
-0.616738
-0.626507
-0.635538
-0.643804
-0.65128
-0.657943
-0.663772
-0.668749
-0.672859
-0.676091
-0.678439
-0.6799
-0.680475
-0.680166
-0.678986
-0.676962
-0.674136
-0.670556
-0.666281
-0.661371
-0.655899
-0.649946
-0.643602
-0.636966
-0.630145
-0.62325
-0.616396
-0.609696
-0.603262
-0.597202
-0.591619
-0.586606
-0.582252
-0.578639
-0.575844
-0.573944
-0.573022
-0.573165
-0.574476
-0.577088
-0.581139
-0.586901
-0.594318
-0.239538
-0.257934
-0.276402
-0.295024
-0.313666
-0.332242
-0.350747
-0.369185
-0.387538
-0.405772
-0.42385
-0.441738
-0.459405
-0.476818
-0.493944
-0.510748
-0.527193
-0.543242
-0.558858
-0.574005
-0.588647
-0.602745
-0.616264
-0.629167
-0.641418
-0.65298
-0.663814
-0.673884
-0.683149
-0.691572
-0.699121
-0.705767
-0.711482
-0.716245
-0.720038
-0.722847
-0.724661
-0.725476
-0.725291
-0.724107
-0.72194
-0.718822
-0.714796
-0.709918
-0.704248
-0.697859
-0.69083
-0.683257
-0.675246
-0.666913
-0.658384
-0.649789
-0.641263
-0.632941
-0.624952
-0.617419
-0.610456
-0.604161
-0.598625
-0.593925
-0.590132
-0.587315
-0.585544
-0.5849
-0.585474
-0.587394
-0.590789
-0.595893
-0.602665
-0.268107
-0.287682
-0.307331
-0.327143
-0.346974
-0.366732
-0.386409
-0.406007
-0.425505
-0.444867
-0.464054
-0.483029
-0.501758
-0.520207
-0.53834
-0.556117
-0.573501
-0.590451
-0.606927
-0.62289
-0.638297
-0.653109
-0.667282
-0.680776
-0.69355
-0.705561
-0.716767
-0.727129
-0.736602
-0.745147
-0.752726
-0.759304
-0.764847
-0.769329
-0.772725
-0.775014
-0.776184
-0.776225
-0.77513
-0.772901
-0.769555
-0.765126
-0.75966
-0.753215
-0.745859
-0.737671
-0.728747
-0.719197
-0.709146
-0.698734
-0.688111
-0.677433
-0.666863
-0.656562
-0.646686
-0.637378
-0.628768
-0.620959
-0.614038
-0.608076
-0.603125
-0.599237
-0.596464
-0.594872
-0.594544
-0.595599
-0.598162
-0.60245
-0.608337
-0.301308
-0.32214
-0.34304
-0.364113
-0.385205
-0.406216
-0.427138
-0.44797
-0.468688
-0.489254
-0.509624
-0.529762
-0.549628
-0.569187
-0.588398
-0.60722
-0.625611
-0.643529
-0.66093
-0.67777
-0.694004
-0.709584
-0.724463
-0.738595
-0.751932
-0.764428
-0.776034
-0.786704
-0.796392
-0.805052
-0.81264
-0.819115
-0.824438
-0.828574
-0.831492
-0.833165
-0.833572
-0.832698
-0.830531
-0.82707
-0.822332
-0.81635
-0.809173
-0.800859
-0.791483
-0.781135
-0.769923
-0.757978
-0.745448
-0.732503
-0.719324
-0.706102
-0.693038
-0.680331
-0.668175
-0.656743
-0.646187
-0.636619
-0.628122
-0.620744
-0.61451
-0.609437
-0.605551
-0.602896
-0.601547
-0.601636
-0.603322
-0.606854
-0.612236
-0.339657
-0.361818
-0.384048
-0.406461
-0.428891
-0.451237
-0.473486
-0.495636
-0.51766
-0.539515
-0.561159
-0.58255
-0.603648
-0.62441
-0.644794
-0.664755
-0.684245
-0.70322
-0.721631
-0.739432
-0.756571
-0.772996
-0.788656
-0.803497
-0.817466
-0.830508
-0.84257
-0.853599
-0.86354
-0.872343
-0.879955
-0.886325
-0.891408
-0.89516
-0.897542
-0.898516
-0.898052
-0.896123
-0.892708
-0.887799
-0.881412
-0.87358
-0.864347
-0.853773
-0.841939
-0.828948
-0.81493
-0.800037
-0.784451
-0.768381
-0.752053
-0.735706
-0.719592
-0.703969
-0.689078
-0.675138
-0.662325
-0.650762
-0.640519
-0.631611
-0.624021
-0.617711
-0.612671
-0.608925
-0.606558
-0.605696
-0.606524
-0.609225
-0.614202
-0.381414
-0.405006
-0.428643
-0.452484
-0.476353
-0.500137
-0.523818
-0.54739
-0.570823
-0.594076
-0.617101
-0.639855
-0.662297
-0.684379
-0.706053
-0.727269
-0.747975
-0.768115
-0.787645
-0.806513
-0.82466
-0.842029
-0.858558
-0.874192
-0.888868
-0.902521
-0.915095
-0.92653
-0.936763
-0.945735
-0.953387
-0.959657
-0.964487
-0.967826
-0.969624
-0.969828
-0.968397
-0.965294
-0.960486
-0.953959
-0.945737
-0.935855
-0.924338
-0.911236
-0.896637
-0.880655
-0.863434
-0.845141
-0.825994
-0.806251
-0.78619
-0.766118
-0.746366
-0.72727
-0.70915
-0.692282
-0.676879
-0.66308
-0.650939
-0.64043
-0.631463
-0.62394
-0.617823
-0.613147
-0.610005
-0.608409
-0.608412
-0.609692
-0.612878
-0.430452
-0.455549
-0.480772
-0.506208
-0.531677
-0.557066
-0.582354
-0.60753
-0.632563
-0.657404
-0.682002
-0.706306
-0.73027
-0.753845
-0.776979
-0.799621
-0.821722
-0.843232
-0.864092
-0.884238
-0.903603
-0.922118
-0.939721
-0.956345
-0.971921
-0.986387
-0.999672
-1.0117
-1.02241
-1.03172
-1.03956
-1.04586
-1.05057
-1.05361
-1.05491
-1.05441
-1.05202
-1.0477
-1.04139
-1.03306
-1.0227
-1.0103
-0.995917
-0.97961
-0.961463
-0.941594
-0.920165
-0.89738
-0.873494
-0.848824
-0.823741
-0.798664
-0.774046
-0.750359
-0.728059
-0.707545
-0.68912
-0.67295
-0.659037
-0.647227
-0.63725
-0.628851
-0.621929
-0.616514
-0.61274
-0.61044
-0.609359
-0.608584
-0.609509
-0.475732
-0.502687
-0.529542
-0.55661
-0.583722
-0.610742
-0.637635
-0.664391
-0.690986
-0.717373
-0.743497
-0.769309
-0.794758
-0.819789
-0.844348
-0.868381
-0.891833
-0.914641
-0.936738
-0.958053
-0.978517
-0.998065
-1.01663
-1.03413
-1.0505
-1.06566
-1.07954
-1.09205
-1.10311
-1.11265
-1.12057
-1.12681
-1.13129
-1.13393
-1.13462
-1.1333
-1.12986
-1.12424
-1.1164
-1.10631
-1.09394
-1.07928
-1.06236
-1.04323
-1.02194
-0.998599
-0.973347
-0.946401
-0.918037
-0.888611
-0.858578
-0.828468
-0.798883
-0.77048
-0.743946
-0.71992
-0.698897
-0.681108
-0.666446
-0.654426
-0.644271
-0.635254
-0.627121
-0.620108
-0.614693
-0.610899
-0.608416
-0.606468
-0.606527
-0.54735
-0.575923
-0.604964
-0.634216
-0.663509
-0.692732
-0.72185
-0.750853
-0.779714
-0.808381
-0.836795
-0.864901
-0.892639
-0.91995
-0.946772
-0.973042
-0.998693
-1.02365
-1.04786
-1.07123
-1.09369
-1.11518
-1.1356
-1.15488
-1.17292
-1.18965
-1.20497
-1.21879
-1.23103
-1.2416
-1.2504
-1.25734
-1.26233
-1.26528
-1.26608
-1.26457
-1.26056
-1.25387
-1.24434
-1.23187
-1.21648
-1.19818
-1.17701
-1.15298
-1.12615
-1.09661
-1.06449
-1.03003
-0.993542
-0.955449
-0.916308
-0.876806
-0.837772
-0.800176
-0.76512
-0.733734
-0.707042
-0.685713
-0.669728
-0.658133
-0.649035
-0.640499
-0.631842
-0.623789
-0.617457
-0.613075
-0.610388
-0.609361
-0.610853
-0.573986
-0.604657
-0.634756
-0.665265
-0.695951
-0.726536
-0.756973
-0.787278
-0.81743
-0.847373
-0.877041
-0.90637
-0.935307
-0.963791
-0.991756
-1.01914
-1.04588
-1.0719
-1.09712
-1.12146
-1.14485
-1.16719
-1.18841
-1.20842
-1.22712
-1.24444
-1.26025
-1.27444
-1.28692
-1.29758
-1.30632
-1.31305
-1.3177
-1.32025
-1.32069
-1.3189
-1.31472
-1.30792
-1.29822
-1.28538
-1.2693
-1.24993
-1.22725
-1.2012
-1.17173
-1.13884
-1.10259
-1.06311
-1.02066
-0.975618
-0.928589
-0.880446
-0.832395
-0.786006
-0.74317
-0.705969
-0.676425
-0.656013
-0.644931
-0.64145
-0.641734
-0.641629
-0.639378
-0.635721
-0.632011
-0.628545
-0.625093
-0.622171
-0.621503
-0.70314
-0.736932
-0.771663
-0.806504
-0.841154
-0.875609
-0.909918
-0.944101
-0.978139
-1.01198
-1.04555
-1.07878
-1.11159
-1.14392
-1.1757
-1.20687
-1.23733
-1.26702
-1.29584
-1.3237
-1.35052
-1.37619
-1.40063
-1.42373
-1.44537
-1.46545
-1.48384
-1.50043
-1.51508
-1.52766
-1.53801
-1.54595
-1.55126
-1.55369
-1.55297
-1.54898
-1.54171
-1.53124
-1.51764
-1.5009
-1.48075
-1.45681
-1.42871
-1.39614
-1.35892
-1.3169
-1.27008
-1.21856
-1.16264
-1.10288
-1.04013
-0.97569
-0.91128
-0.849075
-0.791604
-0.741591
-0.701525
-0.673034
-0.656273
-0.649429
-0.648711
-0.649894
-0.650064
-0.648553
-0.645649
-0.641661
-0.63676
-0.632133
-0.631525
0.119822
0.12268
0.125733
0.128992
0.132434
0.136098
0.140003
0.144045
0.148229
0.152567
0.157091
0.161773
0.16647
0.171543
0.176195
0.180905
0.185152
0.18961
0.193662
0.197493
0.201209
0.203923
0.206258
0.207764
0.208624
0.2088
0.207876
0.206104
0.203553
0.20008
0.195237
0.189641
0.183299
0.176302
0.168149
0.159456
0.150323
0.140658
0.130575
0.120372
0.109908
0.099301
0.0889832
0.0788716
0.068439
0.0586296
0.048767
0.0394813
0.0304408
0.0217887
0.0135861
0.00577252
-0.00158412
-0.00850137
-0.0150255
-0.0214338
-0.0272985
-0.0328502
-0.0380336
0.121611
0.124638
0.127895
0.13134
0.134994
0.138865
0.14295
0.147218
0.151669
0.156305
0.161095
0.166011
0.171014
0.176112
0.181236
0.186177
0.191027
0.1957
0.200134
0.204158
0.207858
0.210993
0.213485
0.215252
0.216254
0.216409
0.215661
0.213858
0.211272
0.207607
0.202688
0.196962
0.190431
0.182953
0.174605
0.165564
0.155991
0.145924
0.135453
0.124697
0.113764
0.102781
0.0919143
0.0810218
0.0703304
0.0598886
0.0497244
0.0399669
0.0305403
0.0214846
0.0128685
0.00468759
-0.00310804
-0.0104636
-0.0174683
-0.0240368
-0.0301873
-0.0359418
-0.0413377
0.123482
0.126697
0.130132
0.133786
0.137662
0.141761
0.146078
0.150602
0.155331
0.160251
0.165331
0.170529
0.175824
0.181194
0.186586
0.191942
0.197199
0.202232
0.206958
0.211292
0.215173
0.218579
0.221309
0.22328
0.224436
0.224664
0.22396
0.222208
0.219509
0.215721
0.210732
0.204814
0.197933
0.190109
0.181424
0.172021
0.161994
0.15147
0.140528
0.129292
0.117863
0.106318
0.0947999
0.0834126
0.0722205
0.061303
0.0506825
0.0404113
0.030514
0.0210145
0.0119541
0.00332807
-0.00486533
-0.0126341
-0.0199429
-0.0268015
-0.0332445
-0.0392848
-0.0449614
0.125198
0.128602
0.132245
0.13612
0.140233
0.144584
0.149168
0.153978
0.159003
0.164229
0.16963
0.175174
0.180831
0.186558
0.192288
0.197993
0.203578
0.208957
0.214027
0.218719
0.22293
0.22658
0.22954
0.231711
0.233028
0.233376
0.232727
0.230991
0.228203
0.224298
0.219171
0.213013
0.205809
0.197656
0.188593
0.178768
0.168274
0.157237
0.145762
0.133979
0.121989
0.109888
0.0978111
0.0858864
0.0741468
0.0626796
0.0515276
0.0407349
0.0303421
0.0203749
0.0108602
0.00180885
-0.0067718
-0.0148873
-0.0225373
-0.0297359
-0.0365028
-0.0428507
-0.0488061
0.126793
0.130402
0.134264
0.138374
0.142737
0.147353
0.152218
0.157328
0.162668
0.168224
0.173971
0.179879
0.185911
0.192017
0.198133
0.204206
0.210154
0.215898
0.221341
0.226394
0.230946
0.234883
0.238094
0.240483
0.24197
0.242449
0.241876
0.240147
0.237288
0.233258
0.227957
0.221549
0.214041
0.205532
0.196066
0.185781
0.174792
0.16322
0.151182
0.138814
0.126236
0.113563
0.100912
0.0883906
0.0760634
0.06401
0.0522924
0.0409585
0.0300487
0.0195914
0.00960904
0.000114696
-0.00888739
-0.0174001
-0.0254318
-0.0329926
-0.040097
-0.0467597
-0.0530073
0.128312
0.13214
0.136236
0.140595
0.145223
0.15012
0.155284
0.160708
0.166381
0.172285
0.178395
0.18468
0.191099
0.197602
0.204128
0.210609
0.216965
0.223107
0.22894
0.234361
0.239256
0.243508
0.247
0.249628
0.2513
0.251916
0.251423
0.249708
0.246785
0.242625
0.237142
0.23048
0.222654
0.213761
0.203864
0.193094
0.181579
0.169446
0.156822
0.143846
0.130649
0.117353
0.104071
0.0909099
0.0779559
0.0652881
0.0529731
0.0410631
0.0296002
0.0186154
0.00812983
-0.00184466
-0.0113049
-0.0202529
-0.0286945
-0.0366395
-0.044103
-0.051101
-0.0576612
0.129712
0.133775
0.138123
0.142751
0.147665
0.152866
0.158351
0.164114
0.170142
0.176419
0.182917
0.189604
0.196437
0.203365
0.210325
0.217244
0.224035
0.230605
0.236853
0.242666
0.247927
0.252515
0.256308
0.259193
0.261066
0.261827
0.261416
0.25972
0.256738
0.252444
0.246771
0.23984
0.231677
0.222375
0.212017
0.200734
0.188658
0.175928
0.162681
0.149058
0.135195
0.121223
0.107261
0.0934207
0.079799
0.0664778
0.053526
0.0409994
0.0289422
0.0173879
0.00635902
-0.00413183
-0.0140803
-0.023488
-0.0323613
-0.0407119
-0.0485561
-0.0559108
-0.0628039
0.130952
0.135266
0.139884
0.1448
0.150022
0.155548
0.161379
0.167506
0.173918
0.180596
0.187513
0.194634
0.201915
0.209301
0.216725
0.22411
0.231366
0.238395
0.245087
0.251324
0.25698
0.261929
0.266043
0.269202
0.271292
0.272208
0.271884
0.270211
0.267169
0.262735
0.256857
0.249639
0.241114
0.231379
0.220531
0.208699
0.196025
0.182656
0.168736
0.154417
0.13984
0.125143
0.110455
0.0958935
0.0815596
0.0675406
0.0539095
0.0407255
0.0280351
0.0158732
0.00426411
-0.00677792
-0.0172472
-0.027145
-0.0364789
-0.0452621
-0.0535117
-0.0612455
-0.0684926
0.132
0.136582
0.141488
0.146711
0.152259
0.158134
0.164334
0.170853
0.177677
0.184787
0.192154
0.199743
0.207505
0.215383
0.223307
0.231194
0.238951
0.246472
0.253642
0.260334
0.266417
0.271754
0.276213
0.279665
0.281988
0.283073
0.282843
0.281192
0.278089
0.273508
0.267408
0.25988
0.25097
0.240774
0.229399
0.216981
0.203667
0.189612
0.174974
0.159907
0.144566
0.129095
0.113632
0.0983001
0.0832054
0.0684411
0.0540852
0.0402007
0.0268367
0.0140296
0.00180423
-0.00982444
-0.0208499
-0.0312731
-0.0411019
-0.0503497
-0.0590337
-0.0671733
-0.0747997
0.132809
0.137678
0.142891
0.148443
0.154344
0.160593
0.16719
0.174128
0.181395
0.188968
0.196819
0.204909
0.213187
0.221594
0.230054
0.238481
0.246776
0.254827
0.26251
0.269692
0.276233
0.28199
0.28682
0.290587
0.293162
0.294429
0.294301
0.292676
0.289509
0.284771
0.278431
0.270572
0.261248
0.250559
0.23862
0.225574
0.211574
0.196786
0.181378
0.165514
0.149357
0.133061
0.116768
0.10061
0.0847004
0.0691383
0.0540062
0.039371
0.0252852
0.0117876
-0.00109526
-0.0133489
-0.0249668
-0.0359504
-0.0463079
-0.056052
-0.0652016
-0.0737775
-0.0818108
0.133334
0.138511
0.144056
0.149963
0.156242
0.162893
0.169917
0.177306
0.185046
0.193116
0.201485
0.210111
0.218944
0.227917
0.236953
0.24596
0.254833
0.263452
0.271687
0.279395
0.286429
0.292636
0.297867
0.301975
0.304822
0.306285
0.306269
0.304671
0.301437
0.296532
0.289935
0.281721
0.271954
0.260737
0.248194
0.234474
0.219741
0.204168
0.187934
0.171216
0.154185
0.137004
0.119824
0.102782
0.0860002
0.0695829
0.0536185
0.0381776
0.0233165
0.00907621
-0.00451473
-0.0174399
-0.0296925
-0.0412745
-0.0521951
-0.0624688
-0.0721153
-0.0811563
-0.0896241
0.133529
0.139038
0.144939
0.151227
0.157911
0.164993
0.172473
0.180345
0.188593
0.197195
0.206119
0.215322
0.224749
0.23433
0.243985
0.253615
0.263108
0.272338
0.281164
0.289438
0.297002
0.303695
0.309357
0.313832
0.316972
0.318647
0.318752
0.317184
0.313878
0.308796
0.301922
0.293328
0.283087
0.271304
0.258113
0.243671
0.228152
0.211738
0.194618
0.176983
0.159013
0.140881
0.122749
0.10476
0.0870436
0.0697102
0.0528546
0.0365512
0.0208591
0.00582262
-0.00852867
-0.0221757
-0.0351111
-0.0473373
-0.0588636
-0.0697053
-0.0798839
-0.0894232
-0.0983561
0.133321
0.139186
0.145469
0.152164
0.159282
0.166827
0.174797
0.183187
0.19198
0.201155
0.210676
0.2205
0.230566
0.240802
0.251122
0.261421
0.271581
0.281466
0.29093
0.299812
0.307947
0.315161
0.321287
0.326157
0.329614
0.331517
0.331752
0.330216
0.326835
0.321562
0.314391
0.30539
0.294639
0.28225
0.268363
0.253146
0.236781
0.219464
0.201395
0.182773
0.163794
0.14464
0.125483
0.106476
0.0877558
0.0694392
0.051626
0.0343971
0.0178149
0.00192603
-0.013238
-0.0276577
-0.0413259
-0.0542441
-0.0664213
-0.0778741
-0.0886239
-0.0986959
-0.108125
0.13262
0.138866
0.145558
0.152691
0.160277
0.168319
0.176817
0.185764
0.195146
0.204936
0.215101
0.225592
0.236347
0.247288
0.258324
0.269343
0.28022
0.290812
0.300961
0.310499
0.319247
0.327024
0.333649
0.338944
0.342741
0.344889
0.345266
0.343764
0.3403
0.334825
0.327332
0.317894
0.306596
0.293554
0.278919
0.262867
0.245594
0.227306
0.208215
0.188534
0.168468
0.148214
0.127955
0.107853
0.0880533
0.0686798
0.0498364
0.0316102
0.0140687
-0.00273851
-0.0187774
-0.0340285
-0.048484
-0.0621454
-0.0750233
-0.0871342
-0.0985006
-0.109148
-0.119115
0.131321
0.137977
0.14511
0.152715
0.160804
0.169381
0.178448
0.187996
0.198011
0.208466
0.219324
0.230534
0.242031
0.253732
0.265539
0.277335
0.288985
0.300337
0.311225
0.321468
0.330877
0.33926
0.346422
0.352175
0.356338
0.35875
0.359279
0.357812
0.354261
0.348565
0.340727
0.330817
0.318928
0.305184
0.289743
0.272793
0.25454
0.235206
0.215016
0.194195
0.172961
0.151523
0.130076
0.108796
0.0878337
0.0673237
0.0473745
0.0280773
0.0095036
-0.00829352
-0.0252773
-0.041426
-0.0567314
-0.0711947
-0.0848274
-0.0976481
-0.109679
-0.12095
-0.1315
0.129311
0.136408
0.144014
0.152126
0.160757
0.169911
0.17959
0.189786
0.200483
0.211654
0.223259
0.235245
0.247541
0.260061
0.2727
0.285332
0.297816
0.309988
0.321672
0.332676
0.342799
0.351834
0.359575
0.36582
0.370377
0.373074
0.373765
0.372336
0.368688
0.362755
0.354542
0.344124
0.331598
0.317096
0.300784
0.282864
0.263555
0.243092
0.221715
0.199664
0.177172
0.154459
0.131731
0.109178
0.086963
0.0652271
0.0440881
0.0236406
0.00396016
-0.0148977
-0.032894
-0.0500052
-0.0662219
-0.0815461
-0.0959899
-0.109572
-0.122316
-0.134256
-0.145434
0.126433
0.134004
0.142121
0.15078
0.159995
0.169771
0.180111
0.191006
0.202439
0.214383
0.226795
0.239618
0.252777
0.266182
0.279718
0.293254
0.306637
0.319695
0.332238
0.344062
0.354953
0.36469
0.373055
0.37983
0.384811
0.387812
0.388679
0.387289
0.383535
0.377343
0.368723
0.357754
0.344539
0.329217
0.311966
0.292998
0.272548
0.250866
0.228209
0.20483
0.180979
0.156891
0.132783
0.108855
0.0852845
0.0622217
0.0397934
0.0181015
-0.00277467
-0.0227768
-0.0418636
-0.0600114
-0.0772103
-0.0934624
-0.10878
-0.123183
-0.136698
-0.14936
-0.161211
0.122523
0.130604
0.139269
0.148517
0.158361
0.168807