/*--------------------------------*- C++ -*----------------------------------*\
| =========                 |                                                 |
| \\      /  F ield         | OpenFOAM: The Open Source CFD Toolbox           |
|  \\    /   O peration     | Version:  2312                                  |
|   \\  /    A nd           | Website:  www.openfoam.com                      |
|    \\/     M anipulation  |                                                 |
\*---------------------------------------------------------------------------*/
FoamFile
{
    version     2.0;
    format      ascii;
    arch        "LSB;label=32;scalar=64";
    class       surfaceScalarField;
    location    "1900";
    object      phi;
}
// * * * * * * * * * * * * * * * * * * * * * * * * * * * * * * * * * * * * * //

dimensions      [0 3 -1 0 0 0 0];

oriented        oriented;

internalField   nonuniform List<scalar> 
116611
(
0.0320309
0.0114119
-0.0316221
-0.0118207
0.0324361
0.0113287
-0.0117338
0.0328358
0.0112379
-0.0116376
0.0332297
0.0111389
-0.0115329
0.0336193
0.0110315
-0.0114211
0.034009
0.0109145
-0.0113042
0.0343864
0.0107893
-0.0111667
0.0347663
0.0106558
-0.0110357
0.0351352
0.0105121
-0.010881
0.0355009
0.0103595
-0.0107252
0.0358583
0.0101954
-0.0105528
0.0362106
0.0100213
-0.0103735
0.0365549
0.00983638
-0.0101806
0.036892
0.00963991
-0.00997707
0.0372206
0.00943265
-0.00976125
0.0375383
0.00921455
-0.00953217
0.0378489
0.00898208
-0.00929274
0.0381504
0.0087409
-0.0090424
0.0384391
0.00848252
-0.00877121
0.0387183
0.00821572
-0.00849489
0.0389897
0.00793155
-0.00820298
0.0392485
0.00763605
-0.00789484
0.0394945
0.0073255
-0.00757145
0.0397301
0.00700208
-0.00723776
0.039952
0.00666371
-0.00688557
0.040166
0.00631066
-0.00652462
0.0403651
0.00594
-0.00613917
0.0405444
0.00555545
-0.00573476
0.0407183
0.00515594
-0.00532979
0.0408665
0.00474057
-0.0048888
0.0410098
0.00431313
-0.00445638
0.041141
0.00386312
-0.00399434
0.0412533
0.00339595
-0.00350829
0.0413507
0.00291479
-0.00301211
0.0414289
0.00241298
-0.00249125
0.0414881
0.00189688
-0.00195603
0.0415398
0.00136188
-0.00141362
0.0415718
0.000810672
-0.000842705
0.04159
0.000241463
-0.000259591
0.0415835
-0.000351145
0.000357587
0.0415598
-0.000956705
0.000980466
0.0415289
-0.00158065
0.00161156
0.0414766
-0.00222361
0.00227584
0.0414042
-0.00288484
0.00295723
0.0413089
-0.00356522
0.00366057
0.041201
-0.00426117
0.00436907
0.0410788
-0.00497542
0.00509764
0.0409275
-0.00571046
0.00586169
0.0407612
-0.00646097
0.00662734
0.0405767
-0.00722819
0.00741268
0.0403699
-0.00801326
0.00822008
0.0401505
-0.00881175
0.00903113
0.0399163
-0.00962682
0.00986096
0.0396609
-0.0104607
0.0107161
0.0393756
-0.0113103
0.0115956
0.0390856
-0.0121689
0.0124589
0.0387679
-0.0130454
0.0133631
0.0384376
-0.0139324
0.0142627
0.0380885
-0.0148284
0.0151775
0.0377208
-0.0157297
0.0160974
0.0373488
-0.0166367
0.0170087
0.0369626
-0.0175587
0.0179449
0.0365576
-0.0184832
0.0188882
0.03614
-0.0194108
0.0198284
0.0357084
-0.0203376
0.0207692
0.0352699
-0.0212626
0.0217011
0.0348401
-0.0221824
0.0226122
0.0344166
-0.0230975
0.0235209
-0.0240675
0.0339704
0.0245138
0.031687
0.0110048
-0.0312799
0.0320904
0.0109252
0.0324899
0.0108385
0.0328848
0.010744
0.0332758
0.0106405
0.0336611
0.0105293
0.034041
0.0104094
0.0344164
0.0102804
0.0347859
0.0101426
0.0351504
0.00999498
0.0355083
0.00983754
0.0358595
0.00967004
0.0362039
0.00949199
0.0365406
0.00930317
0.036869
0.00910424
0.03719
0.00889355
0.0375006
0.00867152
0.037804
0.00843744
0.0380952
0.00819135
0.0383786
0.00793229
0.03865
0.00766016
0.038911
0.00737511
0.03916
0.00707644
0.0393979
0.00676414
0.039624
0.00643768
0.0398386
0.00609603
0.0400386
0.00573998
0.0402251
0.005369
0.0403982
0.00498279
0.0405566
0.00458222
0.0407045
0.00416521
0.0408368
0.00373082
0.0409523
0.00328044
0.0410536
0.00281348
0.0411374
0.00232921
0.0412065
0.00182776
0.0412594
0.00130898
0.0412964
0.000773627
0.0413181
0.000219761
0.0413201
-0.00035314
0.0413062
-0.000942738
0.041275
-0.00154953
0.0412254
-0.00217396
0.0411578
-0.00281722
0.0410713
-0.00347878
0.0409679
-0.00415775
0.0408464
-0.00485395
0.0407047
-0.00556876
0.0405449
-0.00630114
0.0403668
-0.00705004
0.0401694
-0.00781593
0.0399555
-0.00859777
0.0397241
-0.00939547
0.0394733
-0.0102099
0.0392033
-0.0110403
0.0389184
-0.0118841
0.0386143
-0.0127412
0.038293
-0.0136111
0.0379553
-0.0144907
0.0376048
-0.0153791
0.0372437
-0.0162756
0.0368666
-0.0171816
0.0364767
-0.0180933
0.0360752
-0.0190094
0.0356653
-0.0199276
0.0352489
-0.0208463
0.0348305
-0.021764
0.0344106
-0.0226776
-0.0236275
0.0339707
0.0313661
0.0106012
-0.0309625
0.0317669
0.0105244
0.0321647
0.0104407
0.0325589
0.0103497
0.0329485
0.0102509
0.0333336
0.0101442
0.0337137
0.0100292
0.0340885
0.00990559
0.034458
0.00977313
0.0348215
0.00963147
0.0351787
0.00948035
0.0355292
0.0093195
0.0358726
0.00914861
0.0362084
0.00896738
0.0365369
0.0087757
0.0368573
0.00857317
0.0371693
0.00835952
0.0374724
0.00813436
0.0377663
0.00789746
0.0380503
0.0076483
0.0383238
0.0073867
0.0385865
0.00711231
0.0388382
0.00682476
0.0390786
0.0065238
0.0393071
0.00620911
0.0395229
0.00588026
0.0397259
0.00553702
0.0399157
0.00517916
0.040092
0.00480652
0.0402554
0.00441885
0.040405
0.00401557
0.0405395
0.00359631
0.0406591
0.00316087
0.0407635
0.00270901
0.0408523
0.00224045
0.0409251
0.00175493
0.0409817
0.00125239
0.0410226
0.000732722
0.0410472
0.000195245
0.0410543
-0.000360281
0.0410443
-0.000932731
0.0410171
-0.00152234
0.0409729
-0.00212971
0.040911
-0.00275535
0.040831
-0.00339883
0.0407331
-0.00405983
0.0406174
-0.00473825
0.0404832
-0.0054345
0.0403303
-0.00614826
0.0401593
-0.00687902
0.0399701
-0.00762679
0.0397634
-0.00839106
0.0395394
-0.00917145
0.0392977
-0.00996811
0.039038
-0.0107807
0.0387616
-0.0116077
0.0384687
-0.0124484
0.0381598
-0.0133022
0.0378363
-0.0141672
0.0374991
-0.015042
0.0371495
-0.0159259
0.0367867
-0.0168188
0.0364125
-0.0177192
0.0360283
-0.0186251
0.035636
-0.0195353
0.0352382
-0.0204485
0.0348381
-0.0213638
0.0344359
-0.0222754
-0.0232199
0.0340283
0.0310678
0.0101996
-0.0306661
0.0314663
0.0101259
0.0318617
0.0100453
0.0322537
0.00995769
0.0326418
0.00986279
0.0330257
0.00976029
0.033405
0.00964994
0.0337792
0.00953138
0.034148
0.00940436
0.0345109
0.00926856
0.0348676
0.00912368
0.0352177
0.00896942
0.0355608
0.00880552
0.0358965
0.00863167
0.0362246
0.00844759
0.0365447
0.00825306
0.0368565
0.00804769
0.0371596
0.00783125
0.0374537
0.00760339
0.0377382
0.00736382
0.0380127
0.0071122
0.0382768
0.00684823
0.0385299
0.00657159
0.0387718
0.00628196
0.0390019
0.00597901
0.0392198
0.00566234
0.0394252
0.00533162
0.0396177
0.00498669
0.0397968
0.00462733
0.0399625
0.00425317
0.0401142
0.00386386
0.0402516
0.00345896
0.0403743
0.0030382
0.0404819
0.00260136
0.0405742
0.00214816
0.0406508
0.00167836
0.0407114
0.00119172
0.0407561
0.000688004
0.0407845
0.000166883
0.0407961
-0.000371836
0.0407907
-0.000927347
0.0407683
-0.00149997
0.0407288
-0.00209019
0.0406717
-0.00269829
0.040597
-0.00332409
0.0405046
-0.00396744
0.0403947
-0.0046283
0.0402667
-0.00530657
0.0401206
-0.00600212
0.0399565
-0.00671495
0.0397747
-0.00744497
0.0395754
-0.00819175
0.0393589
-0.00895498
0.0391254
-0.00973462
0.0388751
-0.0105303
0.0386087
-0.0113413
0.038327
-0.0121667
0.0380303
-0.0130055
0.0377194
-0.0138563
0.0373951
-0.0147177
0.0370583
-0.015589
0.0367095
-0.0164701
0.0363504
-0.0173601
0.0359829
-0.0182575
0.0356089
-0.0191614
0.0352305
-0.0200701
0.0348494
-0.0209827
0.0344658
-0.0218919
-0.0228326
0.0340784
0.0307887
0.00979829
-0.0303874
0.0311864
0.00972814
0.0315805
0.00965124
0.0319708
0.00956736
0.0323573
0.00947634
0.0327395
0.009378
0.0331174
0.00927211
0.0334903
0.00915841
0.0338581
0.00903662
0.0342202
0.00890646
0.0345762
0.00876763
0.0349258
0.00861981
0.0352687
0.00846271
0.0356043
0.00829607
0.0359323
0.00811959
0.0362523
0.007933
0.0365641
0.00773596
0.0368671
0.00752818
0.0371612
0.00730935
0.0374458
0.0070792
0.0377206
0.00683742
0.0379851
0.00658367
0.0382391
0.00631766
0.0384819
0.00603912
0.0387132
0.00574766
0.0389327
0.0054429
0.0391397
0.00512456
0.039334
0.00479238
0.0395153
0.00444609
0.0396831
0.00408534
0.0398372
0.0037098
0.0399771
0.003319
0.0401026
0.00291274
0.0402132
0.00249075
0.0403087
0.00205271
0.0403886
0.00159842
0.0404528
0.00112757
0.0405009
0.000639847
0.0405328
0.000134953
0.0405482
-0.000387216
0.0405469
-0.000926057
0.0405288
-0.00148184
0.0404936
-0.00205502
0.0404412
-0.00264587
0.0403714
-0.0032543
0.0402842
-0.00388025
0.0401796
-0.00452367
0.0400573
-0.00518427
0.0399172
-0.00586206
0.0397595
-0.00655721
0.0395843
-0.00726979
0.0393921
-0.00799954
0.0391834
-0.00874623
0.0389585
-0.0095098
0.038718
-0.0102898
0.0384621
-0.0110854
0.0381915
-0.011896
0.0379065
-0.0127205
0.0376076
-0.0135574
0.0372956
-0.0144056
0.0369716
-0.0152651
0.036637
-0.0161355
0.0362937
-0.0170167
0.0359432
-0.0179071
0.0355872
-0.0188054
0.0352271
-0.01971
0.0348645
-0.0206201
0.034501
-0.0215284
-0.0224723
0.0341408
0.0305255
0.00939638
-0.0301236
0.0309237
0.00932996
0.0313179
0.00925702
0.031708
0.00917728
0.0320938
0.00909056
0.0324751
0.00899668
0.0328517
0.00889545
0.0332235
0.00878666
0.03359
0.00867007
0.0339511
0.00854543
0.0343062
0.00841246
0.0346552
0.00827089
0.0349974
0.00812043
0.0353327
0.00796084
0.0356605
0.00779177
0.0359804
0.00761303
0.0362921
0.00742427
0.0365952
0.00722516
0.0368892
0.00701533
0.0371739
0.0067945
0.0374488
0.00656245
0.0377137
0.00631883
0.037968
0.00606337
0.0382113
0.00579579
0.0384433
0.00551568
0.0386635
0.00522269
0.0388715
0.00491652
0.0390671
0.00459684
0.0392498
0.00426337
0.0394193
0.00391579
0.0395754
0.00355378
0.0397174
0.00317694
0.0398451
0.00278502
0.0399582
0.00237772
0.0400562
0.0019547
0.0401389
0.00151565
0.0402063
0.00106023
0.0402579
0.000588231
0.0402935
9.9359e-05
0.0403127
-0.000406401
0.0403153
-0.000928665
0.0403011
-0.00146768
0.04027
-0.00202392
0.0402218
-0.00259763
0.0401562
-0.00318876
0.0400734
-0.00379744
0.0399733
-0.00442354
0.0398558
-0.0050668
0.0397212
-0.00572743
0.0395696
-0.00640563
0.0394014
-0.00710158
0.0392171
-0.00781517
0.0390169
-0.00854612
0.0388014
-0.00929428
0.0385707
-0.010059
0.038325
-0.0108398
0.0380649
-0.0116359
0.0377906
-0.0124462
0.0375027
-0.0132696
0.0372026
-0.0141055
0.0368916
-0.0149541
0.0365714
-0.0158154
0.0362435
-0.0166888
0.035909
-0.0175726
0.0355693
-0.0184656
0.0352258
-0.0193665
0.0348806
-0.0202748
0.0345362
-0.0211841
-0.0221325
0.0341964
0.0302772
0.00899385
-0.0298747
0.0306761
0.00893104
0.0310711
0.00886204
0.0314619
0.00878651
0.0318482
0.00870426
0.0322298
0.0086151
0.0326064
0.0085188
0.0329779
0.00841518
0.0333439
0.00830402
0.0337043
0.00818503
0.0340588
0.008058
0.034407
0.00792268
0.0347486
0.0077788
0.0350833
0.00762619
0.0354105
0.00746452
0.0357301
0.0072935
0.0360415
0.00711286
0.0363444
0.00692225
0.0366384
0.00672129
0.0369232
0.00650969
0.0371984
0.00628726
0.0374636
0.00605368
0.0377183
0.00580869
0.0379621
0.00555198
0.0381946
0.0052831
0.0384156
0.00500171
0.0386246
0.00470752
0.0388213
0.0044002
0.0390052
0.00407941
0.0391762
0.00374482
0.0393338
0.00339616
0.0394776
0.00303313
0.0396073
0.00265537
0.0397224
0.00226257
0.0398227
0.00185443
0.0399078
0.00143053
0.0399776
0.000990481
0.0400317
0.000534128
0.0400698
6.12098e-05
0.0400916
-0.000428189
0.040097
-0.000934049
0.0400859
-0.00145655
0.0400581
-0.00199614
0.0400135
-0.00255301
0.039952
-0.00312725
0.0398736
-0.00371908
0.0397784
-0.00432833
0.0396665
-0.00495486
0.0395382
-0.00559917
0.0393938
-0.00626127
0.0392335
-0.00694126
0.0390574
-0.00763905
0.0388657
-0.00835441
0.0386587
-0.00908727
0.0384365
-0.00983688
0.0381996
-0.0106029
0.0379485
-0.0113847
0.0376837
-0.0121813
0.0374062
-0.0129921
0.0371175
-0.0138168
0.0368192
-0.0146558
0.0365123
-0.0155085
0.036198
-0.0163745
0.0358775
-0.017252
0.0355524
-0.0181406
0.0352248
-0.0190389
0.0348966
-0.0199467
0.0345709
-0.0208583
-0.0218087
0.0342471
0.030045
0.00859107
-0.0296422
0.0304444
0.00853162
0.0308402
0.00846632
0.0312318
0.0083949
0.031619
0.00831705
0.0320014
0.00823262
0.0323789
0.00814135
0.0327511
0.00804302
0.0331176
0.00793745
0.0334783
0.00782433
0.0338329
0.00770346
0.034181
0.00757458
0.0345224
0.00743741
0.0348567
0.00729183
0.0351837
0.00713754
0.0355029
0.00697426
0.0358141
0.00680168
0.0361169
0.00661947
0.0364109
0.0064273
0.0366957
0.00622485
0.036971
0.00601195
0.0372364
0.00578832
0.0374914
0.00555366
0.0377358
0.00530766
0.0379689
0.00504995
0.0381905
0.00478011
0.0384002
0.0044978
0.0385977
0.00420272
0.0387826
0.00389454
0.0389545
0.00357291
0.0391131
0.00323756
0.039258
0.00288822
0.0393888
0.00252455
0.0395052
0.00214618
0.0396068
0.00175284
0.0396933
0.00134406
0.0397644
0.000919363
0.03982
0.000478476
0.0398601
2.11044e-05
0.0398843
-0.000452379
0.0398925
-0.000942204
0.0398845
-0.00144853
0.0398601
-0.00197183
0.0398195
-0.00251233
0.0397625
-0.00307027
0.0396893
-0.00364593
0.0396001
-0.00423911
0.0394951
-0.0048498
0.0393743
-0.00547842
0.0392376
-0.00612457
0.0390848
-0.00678841
0.0389157
-0.00747002
0.0387306
-0.00816931
0.0385299
-0.0088866
0.0383141
-0.00962102
0.0380838
-0.0103726
0.0378398
-0.0111408
0.0375831
-0.0119246
0.0373148
-0.0127238
0.0370365
-0.0135384
0.0367492
-0.0143685
0.0364541
-0.0152134
0.0361523
-0.0160727
0.0358456
-0.0169453
0.0355358
-0.0178307
0.0352249
-0.018728
0.0349148
-0.0196366
0.034607
-0.0205505
-0.0215042
0.0343025
0.0298311
0.00818859
-0.0294286
0.0302304
0.00813232
0.0306262
0.00807048
0.0310182
0.00800288
0.0314061
0.00792921
0.0317894
0.00784929
0.0321679
0.0077629
0.0325411
0.00766978
0.0329088
0.00756979
0.0332705
0.00746261
0.033626
0.00734798
0.0339749
0.00722568
0.0343169
0.00709536
0.0346519
0.00695689
0.0349793
0.00681005
0.035299
0.00665456
0.0356106
0.00649016
0.0359136
0.00631648
0.0362077
0.00613319
0.0364925
0.00593999
0.0367679
0.00573661
0.0370333
0.00552283
0.0372886
0.0052984
0.0375333
0.00506294
0.037767
0.00481627
0.0379892
0.00455794
0.0381995
0.00428749
0.0383976
0.00400463
0.0385831
0.00370906
0.0387555
0.00340042
0.0389147
0.00307837
0.0390604
0.00274258
0.0391922
0.00239277
0.0393096
0.00202874
0.0394124
0.00165003
0.0395004
0.00125608
0.0395733
0.000846457
0.0396309
0.000420872
0.039673
-2.10072e-05
0.0396993
-0.000478695
0.0397098
-0.000952716
0.0397045
-0.00144317
0.0396832
-0.00195057
0.0396461
-0.00247518
0.039593
-0.00301722
0.0395241
-0.00357704
0.0394394
-0.0041544
0.039339
-0.00474939
0.0392227
-0.00536212
0.0390904
-0.00599227
0.0389421
-0.00664008
0.038778
-0.00730588
0.0385981
-0.00798949
0.038403
-0.00869148
0.038193
-0.00941103
0.0379689
-0.0101484
0.0377317
-0.0109036
0.0374828
-0.0116757
0.0372235
-0.0124646
0.0369553
-0.0132703
0.0366792
-0.0140925
0.0363965
-0.0149306
0.0361083
-0.0157846
0.0358165
-0.0166535
0.0355229
-0.0175372
0.0352295
-0.0184345
0.0349378
-0.019345
0.0346478
-0.0202605
-0.0212184
0.034362
0.0296378
0.00778637
-0.0292356
0.0300368
0.00773326
0.0304325
0.00767483
0.0308245
0.00761087
0.0312125
0.0075412
0.0315962
0.0074656
0.0319752
0.00738392
0.0323491
0.00729589
0.0327175
0.00720132
0.0330802
0.00709992
0.0334368
0.00699138
0.033787
0.00687554
0.0341303
0.00675206
0.0344664
0.00662079
0.0347949
0.00648149
0.0351156
0.00633387
0.0354281
0.0061777
0.035732
0.00601259
0.0360269
0.00583823
0.0363126
0.0056543
0.0365887
0.00546049
0.036855
0.00525662
0.0371109
0.00504244
0.0373562
0.00481767
0.0375904
0.00458205
0.0378132
0.00433517
0.038024
0.00407661
0.0382226
0.00380603
0.0384087
0.00352301
0.0385819
0.00322726
0.0387419
0.00291835
0.0388885
0.00259596
0.0390214
0.00225981
0.0391403
0.00190991
0.0392446
0.0015457
0.0393342
0.0011665
0.0394087
0.000771962
0.0394678
0.000361715
0.0395115
-6.4716e-05
0.0395396
-0.000506743
0.039552
-0.000965118
0.0395488
-0.00143993
0.0395297
-0.00193156
0.039495
-0.0024404
0.0394443
-0.00296654
0.0393776
-0.00351037
0.0392949
-0.00407173
0.0391964
-0.00465084
0.0390818
-0.00524759
0.0389515
-0.00586194
0.0388055
-0.00649402
0.0386438
-0.00714426
0.0384669
-0.00781256
0.0382751
-0.00849966
0.0380695
-0.00920549
0.0378514
-0.00993025
0.0376221
-0.0106743
0.0373829
-0.0114366
0.0371348
-0.0122165
0.0368786
-0.013014
0.036615
-0.0138289
0.0363454
-0.014661
0.0360713
-0.0155105
0.0357944
-0.0163766
0.0355165
-0.0172593
0.035239
-0.018157
0.0349634
-0.0190693
0.0346905
-0.0199876
-0.0209563
0.0344284
0.0294661
0.00738426
-0.029064
0.0298651
0.00733428
0.0302606
0.00727927
0.0306525
0.00721897
0.0310405
0.00715323
0.0314243
0.00708185
0.0318035
0.00700472
0.0321777
0.00692161
0.0325468
0.00683229
0.0329102
0.00673646
0.0332677
0.00663391
0.0336188
0.00652448
0.033963
0.00640782
0.0343001
0.00628372
0.0346297
0.0061519
0.0349515
0.00601201
0.0352653
0.00586394
0.0355705
0.00570734
0.0358668
0.00554192
0.0361538
0.00536736
0.036431
0.00518328
0.0366982
0.00498941
0.0369551
0.00478554
0.0372012
0.00457154
0.0374362
0.00434708
0.0376598
0.00411159
0.0378715
0.00386485
0.038071
0.0036066
0.0382577
0.00333625
0.0384315
0.00305347
0.0385921
0.0027578
0.0387393
0.00244877
0.0388728
0.00212623
0.0389925
0.00179028
0.0390978
0.0014404
0.0391885
0.00107581
0.0392642
0.000696223
0.0393248
0.000301115
0.0393702
-0.000110103
0.0394001
-0.000536614
0.0394142
-0.000979257
0.0394125
-0.00143826
0.0393949
-0.00191395
0.0393613
-0.00240678
0.0393116
-0.00291682
0.0392457
-0.00344446
0.0391636
-0.00398961
0.0390654
-0.00455265
0.0389513
-0.00513351
0.0388216
-0.00573223
0.0386764
-0.00634888
0.0385164
-0.00698417
0.038342
-0.00763822
0.0381544
-0.00831199
0.0379551
-0.00900628
0.0377454
-0.00972054
0.0375259
-0.0104548
0.0372971
-0.0112077
0.0370596
-0.011979
0.0368141
-0.0127685
0.0365621
-0.0135768
0.0363048
-0.0144037
0.0360439
-0.0152496
0.0357805
-0.0161132
0.0355159
-0.0169947
0.0352506
-0.0178917
0.0349852
-0.018804
0.0347214
-0.0197238
-0.0207012
0.0344663
0.0293163
0.00698165
-0.0289137
0.0297157
0.00693487
0.0301117
0.00688334
0.0305038
0.00682681
0.030892
0.00676508
0.0312759
0.00669797
0.0316552
0.00662537
0.0320297
0.00654714
0.032399
0.00646302
0.0327627
0.00637274
0.0331206
0.00627603
0.0334723
0.00617278
0.0338173
0.00606279
0.0341553
0.00594569
0.034486
0.00582123
0.0348089
0.00568912
0.0351236
0.00554917
0.0354298
0.00540117
0.035727
0.00524477
0.0360147
0.00507962
0.0362928
0.00490523
0.0365609
0.00472126
0.0368188
0.0045276
0.0370662
0.0043242
0.0373024
0.00411084
0.0375272
0.00388683
0.0377403
0.00365174
0.0379413
0.00340554
0.0381298
0.00314777
0.0383053
0.00287805
0.0384672
0.00259581
0.0386156
0.00230042
0.03875
0.00199182
0.0388703
0.00167001
0.0389762
0.00133444
0.0390676
0.000984438
0.0391441
0.000619723
0.0392054
0.000239812
0.0392512
-0.000155918
0.0392814
-0.000566762
0.0392957
-0.000993562
0.039294
-0.00143661
0.0392763
-0.00189624
0.0392423
-0.00237281
0.0391921
-0.00286658
0.0391254
-0.00337778
0.0390424
-0.0039066
0.0389434
-0.00445366
0.038829
-0.00501911
0.0386999
-0.00560308
0.0385567
-0.00620571
0.0384004
-0.0068279
0.038232
-0.0074698
0.0380523
-0.00813233
0.0378622
-0.00881611
0.0376617
-0.00952011
0.037451
-0.010244
0.0372305
-0.0109872
0.0370016
-0.01175
0.0367655
-0.0125324
0.0365237
-0.013335
0.0362772
-0.0141572
0.0360269
-0.0149993
0.0357733
-0.0158597
0.0355169
-0.0167382
0.0352574
-0.0176322
0.0349943
-0.0185409
0.0347274
-0.0194569
-0.0204272
0.0344533
0.0291889
0.00657871
-0.0287859
0.0295887
0.00653504
0.0299851
0.00648693
0.0303778
0.00643412
0.0307665
0.00637645
0.0311507
0.00631373
0.0315303
0.00624573
0.0319052
0.0061723
0.0322749
0.00609332
0.032639
0.0060086
0.0329973
0.00591776
0.0333495
0.00582053
0.0336954
0.00571698
0.0340342
0.00560683
0.0343657
0.00548973
0.0346894
0.00536538
0.035005
0.00523356
0.0353122
0.00509406
0.0356104
0.00494656
0.0358993
0.00479069
0.0361785
0.00462599
0.0364477
0.00445206
0.0367065
0.00426885
0.0369544
0.00407625
0.0371913
0.00387392
0.0374168
0.00366137
0.0376304
0.00343812
0.037832
0.003204
0.038021
0.00295873
0.0381971
0.002702
0.0383598
0.00243307
0.038509
0.00215118
0.0386446
0.00185629
0.0387662
0.00154841
0.0388736
0.00122703
0.0389663
0.000891727
0.039044
0.000542007
0.0391065
0.000177343
0.0391531
-0.000202515
0.0391838
-0.000597458
0.0391982
-0.00100796
0.039196
-0.00143441
0.0391772
-0.00187742
0.0391417
-0.00233735
0.0390901
-0.00281495
0.0390225
-0.0033102
0.0389395
-0.00382359
0.0388415
-0.00435571
0.0387293
-0.00490691
0.0386037
-0.00547752
0.0384656
-0.00606753
0.0383154
-0.00667771
0.0381539
-0.00730834
0.0379813
-0.00795971
0.0377973
-0.00863216
0.0376025
-0.00932524
0.0373974
-0.010039
0.0371833
-0.0107732
0.0369616
-0.0115283
0.0367331
-0.012304
0.0364988
-0.0131007
0.0362591
-0.0139175
0.0360143
-0.0147544
0.0357642
-0.0156096
0.0355086
-0.0164826
0.035247
-0.0173706
0.0349786
-0.0182725
0.0347017
-0.0191801
-0.0201342
0.0344088
0.0290855
0.006175
-0.0286818
0.0294861
0.00613446
0.0298832
0.00608981
0.0302766
0.00604071
0.0306661
0.00598695
0.0310514
0.00592848
0.031432
0.00586506
0.0318079
0.00579646
0.0321786
0.0057226
0.0325438
0.00564338
0.032903
0.00555854
0.0332559
0.00546771
0.0336021
0.00537078
0.0339414
0.00526753
0.0342734
0.00515769
0.0345979
0.00504086
0.0349146
0.00491689
0.035223
0.00478567
0.0355226
0.00464698
0.0358128
0.00450041
0.0360934
0.00434545
0.0363636
0.00418181
0.0366234
0.00400913
0.0368722
0.00382736
0.0371099
0.00363625
0.037336
0.0034353
0.0375501
0.00322406
0.0377519
0.00300211
0.0379415
0.00276921
0.0381182
0.00252523
0.0382819
0.00226938
0.0384321
0.00200101
0.0385684
0.00171997
0.0386905
0.00142635
0.0387979
0.00111956
0.0388904
0.000799282
0.0389673
0.000465043
0.0390286
0.000116093
0.0390733
-0.000247232
0.0391017
-0.000625803
0.0391138
-0.00102009
0.0391096
-0.00143026
0.0390897
-0.00185746
0.0390544
-0.00230208
0.0390042
-0.00276479
0.0389395
-0.00324548
0.0388606
-0.00374464
0.0387676
-0.00426267
0.0386607
-0.00480006
0.0385406
-0.00535738
0.0384078
-0.00593476
0.0382625
-0.00653237
0.0381048
-0.00715065
0.0379352
-0.0077901
0.0377541
-0.00845113
0.0375626
-0.00913371
0.0373616
-0.00983797
0.0371521
-0.0105637
0.0369349
-0.0113111
0.0367105
-0.0120795
0.0364789
-0.0128691
0.0362401
-0.0136787
0.0359936
-0.0145079
0.0357389
-0.015355
0.0354753
-0.016219
0.0352021
-0.0170974
0.0349186
-0.017989
0.0346275
-0.018889
-0.0198361
0.0343294
0.0290073
0.00577006
-0.0286024
0.0294091
0.00573269
0.0298075
0.00569141
0.0302022
0.00564602
0.0305929
0.00559623
0.0309793
0.00554206
0.0313611
0.00548328
0.0317379
0.00541961
0.0321096
0.00535092
0.0324759
0.00527709
0.0328363
0.00519813
0.0331903
0.00511377
0.0335375
0.00502356
0.0338778
0.0049272
0.034211
0.00482453
0.0345366
0.00471526
0.0348543
0.00459922
0.0351636
0.00447638
0.035464
0.00434649
0.0357552
0.00420923
0.0360367
0.00406394
0.0363082
0.00391037
0.0365691
0.00374821
0.0368192
0.00357722
0.0370585
0.00339702
0.0372866
0.00320722
0.0375031
0.00300755
0.0377074
0.00279773
0.0378991
0.00257754
0.0380775
0.00234682
0.038242
0.00210487
0.038392
0.00185103
0.038527
0.00158498
0.0386466
0.00130675
0.0387506
0.00101556
0.0388392
0.000710729
0.0389119
0.000392265
0.0389691
5.89633e-05
0.0390107
-0.000288912
0.0390372
-0.000652302
0.039049
-0.00103184
0.0390461
-0.00142733
0.0390285
-0.00183992
0.0389964
-0.00227
0.0389496
-0.00271799
0.0388882
-0.00318406
0.0388123
-0.00366872
0.0387221
-0.00417247
0.0386179
-0.00469588
0.0385
-0.00523948
0.0383688
-0.00580359
0.038225
-0.00638849
0.038069
-0.00699474
0.0379018
-0.00762284
0.0377238
-0.0082731
0.0375355
-0.00894549
0.0373376
-0.00964002
0.0371302
-0.0103564
0.0369136
-0.0110944
0.0366875
-0.0118535
0.0364517
-0.0126332
0.0362055
-0.0134325
0.0359483
-0.0142507
0.0356793
-0.015086
0.0353977
-0.0159374
0.0351028
-0.0168025
0.0347936
-0.0176798
0.0344686
-0.0185639
-0.0194921
0.0341246
0.0289541
0.00536387
-0.0285479
0.0293572
0.00532962
0.0297569
0.00529169
0.0301529
0.00524998
0.0305449
0.00520424
0.0309326
0.00515437
0.0313157
0.00510018
0.0316939
0.00504139
0.0320669
0.00497795
0.0324345
0.00490952
0.0327964
0.00483618
0.0331522
0.00475801
0.0335013
0.0046744
0.0338436
0.00458492
0.0341787
0.00448951
0.034506
0.00438792
0.0348251
0.00428011
0.0351355
0.00416596
0.0354369
0.00404514
0.0357289
0.0039172
0.0360111
0.00378176
0.0362831
0.00363831
0.0365448
0.00348657
0.0367957
0.00332635
0.0370353
0.00315735
0.0372633
0.0029792
0.0374794
0.0027915
0.0376829
0.00259419
0.0378734
0.00238711
0.0380502
0.00216993
0.0382131
0.00194199
0.0383616
0.00170252
0.0384955
0.00145109
0.0386148
0.00118747
0.0387195
0.000910891
0.0388097
0.000620538
0.0388852
0.000316696
0.0389461
-1.88785e-06
0.0389922
-0.000335046
0.0390233
-0.000683358
0.0390389
-0.00104745
0.039039
-0.00142741
0.0390234
-0.0018243
0.038992
-0.00223866
0.038945
-0.00267102
0.0388828
-0.00312185
0.0388058
-0.00359171
0.0387145
-0.00408114
0.0386093
-0.0045907
0.0384907
-0.00512091
0.0383593
-0.00567218
0.0382157
-0.00624486
0.0380603
-0.00683936
0.0378934
-0.00745593
0.0377151
-0.00809476
0.0375253
-0.00875575
0.0373241
-0.0094388
0.0371112
-0.0101435
0.0368863
-0.0108695
0.036649
-0.0116161
0.0363986
-0.0123828
0.0361346
-0.0131685
0.0358562
-0.0139723
0.035563
-0.0147928
0.0352543
-0.0156287
0.0349299
-0.0164781
0.0345896
-0.0173394
0.034232
-0.0182064
-0.01911
0.0338499
0.0289298
0.00495633
-0.0285223
0.0293343
0.00492514
0.0297355
0.00489052
0.0301331
0.0048524
0.0305267
0.00481059
0.0309162
0.00476492
0.0313011
0.00471525
0.0316812
0.00466133
0.032056
0.00460309
0.0324254
0.00454018
0.032789
0.00447249
0.0331468
0.00440026
0.033498
0.00432323
0.0338421
0.00424081
0.0341787
0.00415286
0.0345076
0.004059
0.0348286
0.00395919
0.0351412
0.00385331
0.0354453
0.00374109
0.0357404
0.00362205
0.0360261
0.00349605
0.0363016
0.00336283
0.0365663
0.00322186
0.0368197
0.00307297
0.0370613
0.00291574
0.0372904
0.0027501
0.0375068
0.00257515
0.0377102
0.00239072
0.0379004
0.00219691
0.0380774
0.00199299
0.0382411
0.0017783
0.0383914
0.00155221
0.038528
0.00131445
0.0386508
0.00106465
0.0387595
0.000802221
0.0388535
0.000526564
0.0389324
0.000237774
0.0389957
-6.51929e-05
0.039043
-0.000382313
0.039074
-0.000714402
0.0390887
-0.00106212
0.0390873
-0.00142602
0.0390699
-0.00180694
0.0390368
-0.00220552
0.0389881
-0.00262234
0.0389242
-0.00305799
0.0388455
-0.00351302
0.0387524
-0.00398799
0.0386451
-0.00448342
0.038524
-0.0049998
0.0383894
-0.00553752
0.0382414
-0.0060969
0.0380802
-0.0066782
0.0379059
-0.00728156
0.0377181
-0.00790702
0.0375168
-0.00855443
0.0373016
-0.00922357
0.0370721
-0.00991398
0.0368278
-0.0106252
0.0365682
-0.0113566
0.0362928
-0.0121074
0.0360011
-0.0128767
0.0356924
-0.0136637
0.0353665
-0.014467
0.0350236
-0.0152858
0.0346643
-0.0161188
0.0342908
-0.0169659
0.0339079
-0.0178234
-0.0187249
0.0335227
0.0289393
0.00454712
-0.0285301
0.0293455
0.00451893
0.0297484
0.00448759
0.0301478
0.00445299
0.0305434
0.00441501
0.0309348
0.00437349
0.0313218
0.00432829
0.0317039
0.00427922
0.0320809
0.00422614
0.0324522
0.00416885
0.0328176
0.00410713
0.0331768
0.00404103
0.0335296
0.00397041
0.0338755
0.00389487
0.0342143
0.0038141
0.0345455
0.00372781
0.0348689
0.00363582
0.035184
0.00353812
0.0354907
0.00343443
0.0357883
0.00332448
0.0360763
0.00320798
0.0363542
0.00308494
0.0366213
0.00295478
0.0368771
0.00281714
0.0371216
0.0026713
0.0373543
0.00251738
0.0375748
0.00235466
0.0377831
0.00218235
0.0379792
0.0020009
0.0381623
0.00180983
0.038332
0.00160859
0.0384876
0.00139664
0.0386285
0.00117356
0.0387543
0.000938842
0.0388646
0.000691939
0.0389589
0.000432284
0.0390372
0.000159474
0.0390993
-0.000127294
0.0391451
-0.000428133
0.0391746
-0.000743959
0.0391879
-0.00107539
0.039185
-0.0014231
0.0391658
-0.00178778
0.0391304
-0.00217012
0.0390789
-0.00257076
0.0390112
-0.00299032
0.0389276
-0.00342941
0.0388282
-0.00388859
0.0387131
-0.00436839
0.0385826
-0.00486925
0.0384366
-0.00539155
0.0382753
-0.00593556
0.0380986
-0.0065015
0.0379064
-0.00708941
0.0376987
-0.00769927
0.0374751
-0.00833084
0.0372354
-0.00898384
0.0369791
-0.00965775
0.0367059
-0.0103521
0.0364154
-0.011066
0.0361069
-0.0117989
0.03578
-0.0125499
0.0354346
-0.0133182
0.0350708
-0.0141032
0.0346896
-0.0149046
0.0342934
-0.0157226
0.0338866
-0.016559
0.0334765
-0.0174133
-0.0183207
0.0330724
0.0289896
0.00413567
-0.0285782
0.0293981
0.0041104
0.0298035
0.00408223
0.0302054
0.0040511
0.0306035
0.00401687
0.0309976
0.0039794
0.0313873
0.00393857
0.0317723
0.00389423
0.0321522
0.00384621
0.0325267
0.00379437
0.0328954
0.00373849
0.0332579
0.00367849
0.0336141
0.00361417
0.0339637
0.00354534
0.0343061
0.00347168
0.0346409
0.00339301
0.0349676
0.00330909
0.0352859
0.00321982
0.0355955
0.00312489
0.0358959
0.00302408
0.0361868
0.00291706
0.036468
0.00280372
0.036739
0.00268372
0.0369995
0.00255666
0.0372489
0.00242194
0.037487
0.00227929
0.0377131
0.00212855
0.0379265
0.00196892
0.038127
0.00180045
0.038314
0.00162285
0.0384869
0.00143566
0.0386452
0.00123835
0.0387883
0.00103039
0.0389159
0.000811237
0.0390276
0.000580309
0.0391228
0.000337018
0.0392016
8.07513e-05
0.0392634
-0.000189101
0.0393081
-0.00047285
0.0393355
-0.00077135
0.0393454
-0.00108528
0.0393376
-0.00141534
0.039312
-0.00176222
0.0392686
-0.00212665
0.0392071
-0.00250932
0.0391277
-0.00291091
0.0390304
-0.00333208
0.0389152
-0.00377341
0.0387823
-0.00423547
0.0386318
-0.00471872
0.0384638
-0.00522354
0.0382784
-0.0057502
0.0380758
-0.00629885
0.0378559
-0.00686952
0.0376187
-0.00746207
0.0373641
-0.00807621
0.0370918
-0.00871156
0.0368015
-0.0093675
0.0364929
-0.0100434
0.0361655
-0.0107386
0.0358189
-0.0114524
0.0354531
-0.012184
0.0350683
-0.0129334
0.0346658
-0.0137007
0.0342486
-0.0144873
0.0338214
-0.0152954
0.0333915
-0.0161292
0.0329684
-0.0169903
-0.0179114
0.0325591
0.0290931
0.00372081
-0.0286783
0.0295052
0.00369829
0.0299143
0.00367315
0.0303201
0.00364531
0.0307223
0.00361467
0.0311206
0.00358108
0.0315148
0.00354444
0.0319044
0.0035046
0.0322892
0.00346142
0.0326688
0.00341475
0.0330429
0.00336442
0.0334111
0.00331028
0.0337731
0.00325217
0.0341286
0.00318988
0.034477
0.00312323
0.0348181
0.00305198
0.0351512
0.00297595
0.0354761
0.00289492
0.0357923
0.00280867
0.0360995
0.00271695
0.036397