/*--------------------------------*- C++ -*----------------------------------*\
| =========                 |                                                 |
| \\      /  F ield         | OpenFOAM: The Open Source CFD Toolbox           |
|  \\    /   O peration     | Version:  2312                                  |
|   \\  /    A nd           | Website:  www.openfoam.com                      |
|    \\/     M anipulation  |                                                 |
\*---------------------------------------------------------------------------*/
FoamFile
{
    version     2.0;
    format      ascii;
    arch        "LSB;label=32;scalar=64";
    class       volVectorField;
    location    "1900";
    object      U;
}
// * * * * * * * * * * * * * * * * * * * * * * * * * * * * * * * * * * * * * //

dimensions      [0 1 -1 0 0 0 0];

internalField   nonuniform List<vector> 
76025
(
(1.06137 -0.230881 0)
(1.06764 -0.230169 -6.52704e-21)
(1.07393 -0.229274 0)
(1.08022 -0.228219 0)
(1.08645 -0.227 1.68989e-20)
(1.09291 -0.225355 3.76772e-20)
(1.09932 -0.223746 -6.86186e-20)
(1.10581 -0.221748 3.0153e-20)
(1.11228 -0.219675 1.14761e-20)
(1.11873 -0.21739 -1.21671e-20)
(1.12516 -0.21487 6.47324e-22)
(1.13162 -0.21207 -4.04596e-20)
(1.13811 -0.209107 5.38754e-20)
(1.14455 -0.205841 0)
(1.15102 -0.202236 -1.55919e-20)
(1.15733 -0.198617 0)
(1.16362 -0.194534 0)
(1.16983 -0.190384 0)
(1.17597 -0.185837 -1.74286e-20)
(1.18194 -0.181278 1.90715e-20)
(1.18787 -0.176275 1.97253e-20)
(1.19379 -0.171066 5.98622e-20)
(1.19951 -0.165642 -4.04793e-20)
(1.2051 -0.159937 -6.47877e-20)
(1.21057 -0.154066 -1.21765e-21)
(1.21589 -0.14803 -2.43685e-20)
(1.2212 -0.141478 7.01046e-20)
(1.22624 -0.134892 -7.08187e-20)
(1.23112 -0.127911 2.40874e-20)
(1.23579 -0.120556 -2.47405e-20)
(1.24023 -0.11346 -2.55058e-20)
(1.24457 -0.106 5.38503e-20)
(1.24882 -0.0979892 -8.16614e-20)
(1.25284 -0.0900841 -1.4343e-20)
(1.25659 -0.0818175 7.24888e-20)
(1.26001 -0.0736412 3.2031e-22)
(1.26326 -0.0650227 -1.49107e-20)
(1.26643 -0.0559476 7.93617e-21)
(1.26942 -0.0471106 3.01038e-22)
(1.2721 -0.0379283 -1.21886e-20)
(1.27442 -0.0287307 8.0886e-21)
(1.2766 -0.0190945 -3.99179e-21)
(1.27872 -0.00891432 7.95078e-21)
(1.28058 0.00116164 -1.59816e-20)
(1.28203 0.0114493 -1.62881e-20)
(1.2832 0.0217999 3.1436e-20)
(1.28426 0.0326079 3.22837e-20)
(1.28509 0.0433763 -9.69782e-20)
(1.2855 0.0542904 6.30508e-20)
(1.28569 0.0653763 -7.41128e-22)
(1.28562 0.0766615 -1.59137e-19)
(1.28529 0.088257 -6.23459e-20)
(1.28482 0.100115 6.39775e-20)
(1.28413 0.112294 0)
(1.28301 0.124503 -6.20089e-20)
(1.28157 0.136783 -6.37482e-20)
(1.27995 0.149394 1.061e-21)
(1.27794 0.162385 -6.24138e-20)
(1.27552 0.17589 6.29379e-20)
(1.27268 0.189781 -1.85306e-19)
(1.26993 0.203495 -1.26538e-19)
(1.26673 0.218149 -3.92303e-21)
(1.26311 0.233205 0)
(1.259 0.248686 3.15404e-19)
(1.25445 0.264617 -1.22178e-19)
(1.24955 0.280716 6.3133e-20)
(1.24418 0.298018 -1.25075e-19)
(1.2383 0.316441 1.3024e-19)
(1.23474 0.334358 2.56556e-19)
(1.06228 -0.241613 -6.34362e-21)
(1.06888 -0.24088 -2.25351e-20)
(1.07551 -0.239927 2.90474e-20)
(1.08217 -0.238769 0)
(1.08882 -0.237446 -4.69626e-20)
(1.09556 -0.235858 -3.12995e-21)
(1.10227 -0.23407 4.08533e-20)
(1.10902 -0.232045 0)
(1.1158 -0.229793 7.08186e-22)
(1.12259 -0.227332 1.24232e-20)
(1.12939 -0.224645 -1.31297e-20)
(1.13617 -0.221715 8.1616e-22)
(1.14294 -0.218555 0)
(1.14969 -0.21515 0)
(1.15643 -0.211447 -3.42223e-20)
(1.16308 -0.207552 8.44215e-20)
(1.1697 -0.203347 1.82768e-20)
(1.17623 -0.19894 -5.67047e-20)
(1.1827 -0.194235 3.76917e-20)
(1.18904 -0.189324 -1.94056e-20)
(1.19531 -0.18413 2.18083e-20)
(1.20146 -0.178682 -4.19244e-20)
(1.20749 -0.172977 4.46652e-20)
(1.21338 -0.167007 -6.86362e-20)
(1.21914 -0.16078 4.61385e-20)
(1.22476 -0.154335 7.23474e-20)
(1.23026 -0.147614 -4.8987e-20)
(1.23552 -0.140675 0)
(1.24061 -0.133464 0)
(1.24552 -0.125981 -2.75384e-20)
(1.25026 -0.118273 0)
(1.25487 -0.11035 -2.89919e-20)
(1.25926 -0.102185 2.93464e-20)
(1.26338 -0.0938402 -4.47722e-20)
(1.26727 -0.085279 6.43459e-22)
(1.27093 -0.0765053 -1.53212e-20)
(1.27438 -0.067451 0)
(1.27762 -0.058195 -3.29796e-20)
(1.28064 -0.0487882 2.54234e-20)
(1.28341 -0.0392146 -2.12613e-20)
(1.2859 -0.0293914 1.28047e-20)
(1.28815 -0.0193047 -1.63698e-22)
(1.29015 -0.00910537 4.55539e-21)
(1.29189 0.0011722 -4.24005e-21)
(1.29336 0.0116131 3.44013e-20)
(1.29456 0.022291 -1.72575e-20)
(1.29553 0.033174 -1.75689e-20)
(1.29624 0.0441327 3.31443e-20)
(1.29665 0.0553081 1.00901e-19)
(1.29678 0.0667214 -4.1617e-22)
(1.29666 0.078321 9.94618e-20)
(1.29627 0.0901628 -3.33259e-20)
(1.29563 0.102216 -9.85147e-20)
(1.29477 0.114393 6.56471e-20)
(1.29362 0.126685 0)
(1.29215 0.139343 1.97328e-19)
(1.29044 0.152236 5.8932e-22)
(1.28842 0.165398 -6.52211e-20)
(1.28607 0.178842 -6.63907e-20)
(1.28346 0.192619 0)
(1.28057 0.206927 6.28088e-20)
(1.27742 0.221598 1.93635e-19)
(1.27394 0.236569 0)
(1.2701 0.251982 -1.29508e-19)
(1.2659 0.267938 7.10186e-20)
(1.26125 0.284541 -1.32961e-19)
(1.25629 0.301902 6.62827e-20)
(1.25086 0.319737 -1.32207e-19)
(1.24633 0.337887 -1.3204e-19)
(1.06342 -0.253134 3.46496e-20)
(1.07027 -0.252347 -2.05191e-20)
(1.07719 -0.251336 8.551e-21)
(1.08417 -0.250115 -3.79305e-20)
(1.09121 -0.248682 4.79039e-20)
(1.09826 -0.247027 4.41763e-20)
(1.10534 -0.245139 -5.5713e-20)
(1.11244 -0.243019 0)
(1.11956 -0.240661 7.47093e-22)
(1.12668 -0.238061 0)
(1.13381 -0.235219 1.48909e-20)
(1.14092 -0.23213 -1.48217e-20)
(1.148 -0.22879 -8.19539e-20)
(1.15504 -0.225199 6.53358e-20)
(1.16206 -0.221346 -1.70273e-20)
(1.16903 -0.217227 -5.49468e-20)
(1.17595 -0.212847 1.86553e-20)
(1.1828 -0.208196 1.92005e-20)
(1.18958 -0.203287 6.25388e-20)
(1.19626 -0.198105 -4.1561e-20)
(1.20284 -0.192663 -2.24498e-20)
(1.20929 -0.186955 4.58982e-20)
(1.21562 -0.180984 -2.20223e-20)
(1.22181 -0.174742 -2.46545e-20)
(1.22786 -0.168235 0)
(1.23375 -0.161472 2.6112e-20)
(1.23945 -0.154468 2.61914e-20)
(1.24497 -0.147207 -2.56446e-20)
(1.25031 -0.139681 0)
(1.25546 -0.131904 5.67363e-20)
(1.26043 -0.12387 -2.97379e-20)
(1.26519 -0.115622 -1.30665e-21)
(1.26971 -0.107169 0)
(1.274 -0.0984873 1.53234e-20)
(1.27805 -0.0895899 -4.7966e-20)
(1.28186 -0.0804739 3.2536e-20)
(1.28542 -0.0711528 0)
(1.28873 -0.0616379 2.5696e-20)
(1.29181 -0.0519504 -2.64122e-20)
(1.29464 -0.0421041 -4.37923e-21)
(1.29719 -0.0320348 0)
(1.29947 -0.0217667 -8.9153e-21)
(1.3015 -0.0113263 -4.46759e-21)
(1.30328 -0.000711429 4.29008e-21)
(1.30479 0.0100922 -2.62102e-20)
(1.30602 0.0210891 -1.7958e-20)
(1.30699 0.0322613 3.4574e-20)
(1.30768 0.0435874 -3.51576e-20)
(1.3081 0.0550886 3.5443e-20)
(1.30823 0.066764 -3.46266e-20)
(1.30809 0.0786029 -3.40878e-20)
(1.3077 0.090626 7.00638e-20)
(1.30705 0.102834 0)
(1.30616 0.115219 6.95257e-20)
(1.305 0.127801 7.6661e-22)
(1.30356 0.140621 -6.83924e-20)
(1.30187 0.153666 -6.82172e-20)
(1.29992 0.166974 1.35509e-19)
(1.2977 0.180601 -6.49458e-22)
(1.29521 0.194603 6.85274e-20)
(1.29246 0.208988 -1.37099e-19)
(1.28947 0.223721 -6.92944e-20)
(1.28616 0.238874 9.16729e-22)
(1.28253 0.254518 -6.77302e-20)
(1.27858 0.270706 -6.5815e-20)
(1.2743 0.287451 -2.08523e-19)
(1.26981 0.304901 0)
(1.26469 0.322907 -7.05775e-20)
(1.26063 0.341696 6.90886e-20)
(1.06473 -0.265415 0)
(1.07188 -0.264583 -7.8355e-21)
(1.07909 -0.263512 -4.61373e-20)
(1.08638 -0.262223 3.72699e-20)
(1.09373 -0.260708 3.38461e-20)
(1.10112 -0.258957 -5.5699e-20)
(1.10855 -0.256965 1.18931e-20)
(1.11601 -0.25473 -1.34683e-20)
(1.12348 -0.252248 -1.34892e-20)
(1.13095 -0.249514 -6.04248e-20)
(1.13842 -0.246525 6.10691e-20)
(1.14587 -0.243274 6.67992e-20)
(1.15329 -0.239758 -1.49831e-20)
(1.16068 -0.235974 -7.14285e-20)
(1.16802 -0.231918 5.56338e-20)
(1.17531 -0.227586 -1.99726e-20)
(1.18254 -0.222982 2.07633e-20)
(1.1897 -0.2181 2.15519e-20)
(1.19678 -0.212942 -6.54444e-20)
(1.20376 -0.207508 2.11085e-20)
(1.21064 -0.201797 2.2692e-20)
(1.21739 -0.195807 0)
(1.22401 -0.189542 5.14322e-20)
(1.23049 -0.183003 -2.53587e-20)
(1.23681 -0.176196 -5.31209e-20)
(1.24295 -0.169126 -5.53481e-20)
(1.24892 -0.161792 1.10221e-19)
(1.2547 -0.154189 -5.69605e-20)
(1.26028 -0.146324 0)
(1.26565 -0.138202 -5.9877e-20)
(1.2708 -0.129838 -9.44353e-22)
(1.27573 -0.121248 6.18047e-20)
(1.28042 -0.112429 -3.2393e-20)
(1.28487 -0.103385 8.25661e-20)
(1.28907 -0.0941256 -1.61903e-20)
(1.29301 -0.0846533 0)
(1.29669 -0.0749796 0)
(1.30011 -0.0651056 9.18308e-21)
(1.30327 -0.0550451 9.01073e-21)
(1.30616 -0.0448123 4.75142e-21)
(1.30877 -0.0343706 -1.48223e-22)
(1.3111 -0.0237379 4.55632e-21)
(1.31316 -0.0129321 0)
(1.31494 -0.0019653 -3.35515e-22)
(1.31644 0.00916051 0)
(1.31767 0.0204459 1.7795e-20)
(1.31861 0.031891 1.36889e-22)
(1.31929 0.0434909 -5.51447e-20)
(1.31968 0.0552448 0)
(1.31979 0.0671525 -3.61603e-20)
(1.31963 0.0792166 3.57591e-20)
(1.31921 0.0914498 -7.03727e-20)
(1.31853 0.103857 0)
(1.31761 0.116436 -2.13071e-19)
(1.31644 0.129195 7.63396e-22)
(1.31503 0.142163 7.01804e-20)
(1.31338 0.155364 6.99548e-20)
(1.31151 0.168832 0)
(1.3094 0.182605 0)
(1.30704 0.196725 -6.87797e-20)
(1.30443 0.211211 1.37627e-19)
(1.30158 0.22608 1.37926e-19)
(1.29846 0.241368 0)
(1.2951 0.257132 -1.43364e-19)
(1.29151 0.273435 0)
(1.28764 0.290311 2.12536e-19)
(1.28361 0.307908 -7.12184e-20)
(1.27893 0.326077 -7.31868e-20)
(1.27532 0.345141 -7.56722e-20)
(1.06614 -0.278421 0)
(1.07368 -0.27755 0)
(1.08125 -0.276424 -1.00047e-20)
(1.08887 -0.275066 4.40445e-20)
(1.09656 -0.273468 -5.56167e-20)
(1.10429 -0.271619 1.19278e-20)
(1.11207 -0.269514 0)
(1.11987 -0.267154 1.3615e-20)
(1.12769 -0.264533 0)
(1.13553 -0.261646 3.23605e-20)
(1.14335 -0.25849 2.78425e-21)
(1.15116 -0.25506 -3.39289e-20)
(1.15895 -0.251352 0)
(1.16669 -0.247362 3.90413e-20)
(1.17439 -0.243088 -1.19494e-19)
(1.18203 -0.238528 8.1731e-20)
(1.18959 -0.23368 -1.07093e-19)
(1.19708 -0.228545 2.20677e-20)
(1.20447 -0.223119 -2.37852e-20)
(1.21176 -0.217405 2.33211e-20)
(1.21893 -0.211403 2.47983e-20)
(1.22598 -0.205114 -7.63512e-20)
(1.23288 -0.198539 -5.25749e-20)
(1.23964 -0.191679 0)
(1.24622 -0.184539 5.62483e-20)
(1.25263 -0.177124 2.9257e-20)
(1.25885 -0.169436 -8.64974e-20)
(1.26487 -0.161479 2.93711e-20)
(1.27067 -0.153254 -6.22459e-20)
(1.27625 -0.144772 9.33611e-20)
(1.28161 -0.136042 -3.3094e-20)
(1.28672 -0.127075 1.69297e-20)
(1.29158 -0.117874 0)
(1.29618 -0.108446 -1.69325e-20)
(1.30052 -0.0987984 -1.73094e-20)
(1.30459 -0.0889427 0)
(1.30838 -0.0788872 1.8837e-20)
(1.31189 -0.0686434 -2.81574e-20)
(1.31512 -0.0582236 1.91079e-20)
(1.31806 -0.0476337 -9.73108e-21)
(1.32071 -0.0368487 -1.60608e-22)
(1.32308 -0.0258816 -7.36976e-21)
(1.32515 -0.0147525 2.40439e-21)
(1.32693 -0.00347835 9.46502e-21)
(1.32843 0.00794809 2.81587e-22)
(1.32964 0.0195319 5.72821e-20)
(1.33057 0.0312613 0)
(1.33121 0.0431362 3.71768e-20)
(1.33156 0.0551576 -5.04214e-22)
(1.33164 0.0673225 -3.72108e-20)
(1.33144 0.0796292 0)
(1.33098 0.092081 -3.71359e-20)
(1.33027 0.104686 3.67592e-20)
(1.32934 0.117449 7.23791e-20)
(1.32819 0.130384 0)
(1.32683 0.143515 -1.44885e-19)
(1.32527 0.156866 1.45125e-19)
(1.32349 0.170473 -1.44612e-19)
(1.32149 0.184376 -1.33645e-21)
(1.31925 0.198622 0)
(1.31678 0.21322 -7.25407e-20)
(1.31412 0.228195 7.12965e-20)
(1.31126 0.243584 7.51977e-20)
(1.30823 0.259459 1.4382e-19)
(1.30502 0.275881 -2.22885e-19)
(1.30158 0.292887 1.47574e-19)
(1.29801 0.310624 -7.35842e-20)
(1.29381 0.328964 7.65378e-20)
(1.29081 0.348265 2.21212e-19)
(1.06753 -0.292188 3.60389e-20)
(1.07551 -0.291281 4.01995e-21)
(1.08352 -0.290103 -4.05932e-20)
(1.09157 -0.288675 0)
(1.09966 -0.286992 1.19521e-20)
(1.10778 -0.285042 0)
(1.11592 -0.282821 -2.93293e-20)
(1.1241 -0.280327 -1.95945e-21)
(1.13229 -0.277557 4.74987e-20)
(1.14049 -0.274506 -1.74304e-20)
(1.14869 -0.271171 -1.72724e-20)
(1.15687 -0.267547 -1.92464e-20)
(1.16502 -0.263633 0)
(1.17314 -0.259426 0)
(1.1812 -0.25492 2.06937e-20)
(1.1892 -0.250111 2.15295e-20)
(1.19712 -0.245002 -4.68089e-20)
(1.20495 -0.239591 4.67252e-20)
(1.21267 -0.23388 4.93411e-20)
(1.22028 -0.227867 -5.17593e-20)
(1.22777 -0.221552 1.03703e-19)
(1.23511 -0.214937 1.73683e-22)
(1.24231 -0.208024 -5.64124e-20)
(1.24934 -0.200814 -2.94306e-20)
(1.2562 -0.193313 -5.95697e-20)
(1.26286 -0.185532 5.96573e-20)
(1.26931 -0.177471 6.26377e-20)
(1.27556 -0.169136 -6.28309e-20)
(1.28158 -0.160531 0)
(1.28736 -0.151663 0)
(1.29291 -0.14254 8.50329e-20)
(1.29819 -0.133178 1.38274e-21)
(1.30322 -0.123578 -3.5276e-20)
(1.30797 -0.113751 -3.65605e-20)
(1.31243 -0.103712 3.68034e-20)
(1.31661 -0.093466 0)
(1.3205 -0.0830285 -1.88959e-20)
(1.3241 -0.0724101 -2.98192e-20)
(1.3274 -0.0616177 1.99472e-20)
(1.33041 -0.0506489 -2.01965e-22)
(1.3331 -0.0394886 -1.58285e-21)
(1.33549 -0.0281558 7.45348e-21)
(1.33757 -0.0166721 5.1183e-21)
(1.33935 -0.00504936 1.00422e-20)
(1.34082 0.00671099 -4.95179e-20)
(1.34199 0.0186033 2.70321e-22)
(1.34287 0.0306305 0)
(1.34345 0.042808 -3.98883e-20)
(1.34374 0.0551255 1.16859e-19)
(1.34376 0.0675561 -7.77251e-20)
(1.34352 0.0800868 -3.85e-20)
(1.34305 0.0927397 -6.91421e-22)
(1.34236 0.105535 -3.77366e-20)
(1.34146 0.118471 -4.67269e-22)
(1.34036 0.131568 7.52066e-20)
(1.33906 0.144849 -7.61358e-20)
(1.33757 0.158339 -7.51629e-20)
(1.33586 0.172078 1.49263e-19)
(1.33395 0.186105 -6.42018e-22)
(1.33183 0.200458 7.48105e-20)
(1.32953 0.215147 -7.40624e-20)
(1.32709 0.230204 7.36281e-20)
(1.32453 0.245672 -1.47916e-19)
(1.32185 0.26163 -7.58788e-20)
(1.31901 0.278137 1.47729e-19)
(1.31598 0.295233 -7.88998e-20)
(1.31287 0.31307 -2.32967e-19)
(1.30917 0.331523 -7.57736e-20)
(1.30689 0.350956 0)
(1.06887 -0.306768 0)
(1.07732 -0.305825 1.07724e-20)
(1.0858 -0.304594 -8.20335e-22)
(1.09432 -0.3031 0)
(1.10287 -0.301334 0)
(1.11145 -0.299283 1.48387e-20)
(1.12004 -0.296944 -4.7463e-20)
(1.12864 -0.294313 6.50183e-20)
(1.13725 -0.291389 -3.22912e-20)
(1.14586 -0.288168 1.76229e-20)
(1.15445 -0.284645 0)
(1.16302 -0.280819 1.94438e-20)
(1.17156 -0.276684 -2.16008e-20)
(1.18006 -0.272237 0)
(1.1885 -0.267479 0)
(1.19687 -0.262404 2.3847e-20)
(1.20515 -0.257011 1.86111e-21)
(1.21334 -0.251302 -4.98456e-20)
(1.22142 -0.245283 -5.19093e-20)
(1.22936 -0.238953 5.33245e-20)
(1.23718 -0.232309 2.72206e-20)
(1.24484 -0.225354 1.16008e-19)
(1.25234 -0.218087 9.08771e-22)
(1.25967 -0.210512 -3.19751e-20)
(1.2668 -0.202637 6.1728e-20)
(1.27372 -0.194464 -3.19273e-20)
(1.28043 -0.186004 6.49772e-20)
(1.28691 -0.177264 0)
(1.29315 -0.168252 0)
(1.29915 -0.158976 0)
(1.30488 -0.149442 -1.75457e-20)
(1.31034 -0.139661 -3.60815e-20)
(1.31552 -0.129642 3.71304e-20)
(1.32041 -0.119394 3.84169e-20)
(1.325 -0.10893 -3.86551e-20)
(1.32929 -0.0982621 0)
(1.33327 -0.0873963 2.02786e-20)
(1.33694 -0.0763434 -1.0359e-20)
(1.34028 -0.0651275 0)
(1.34331 -0.0537591 1.05239e-20)
(1.34601 -0.0422204 -1.96125e-21)
(1.34839 -0.0305132 1.30437e-21)
(1.35045 -0.0186605 -5.12575e-21)
(1.3522 -0.00667262 0)
(1.35363 0.0054402 -2.07609e-20)
(1.35476 0.0176666 2.05424e-20)
(1.35559 0.0300137 0)
(1.35613 0.0424791 -7.47637e-22)
(1.3564 0.0550479 5.36129e-22)
(1.35641 0.0677206 3.95065e-20)
(1.35618 0.0804969 0)
(1.35573 0.0933779 -1.1679e-21)
(1.35506 0.10637 -3.87551e-20)
(1.35418 0.119482 -1.18063e-19)
(1.3531 0.132742 -1.29758e-21)
(1.35182 0.146169 7.64374e-20)
(1.35036 0.159788 0)
(1.3487 0.173644 0)
(1.34686 0.187767 7.79871e-20)
(1.34487 0.20219 0)
(1.34276 0.216937 0)
(1.34056 0.232053 -4.17192e-22)
(1.33829 0.247581 -7.66665e-20)
(1.3359 0.263584 -1.56352e-19)
(1.33342 0.280132 1.55671e-19)
(1.3308 0.297277 -4.21401e-21)
(1.32818 0.315186 7.55575e-20)
(1.32506 0.333707 7.85268e-20)
(1.32351 0.353308 0)
(1.07016 -0.322245 0)
(1.0791 -0.32126 -1.08966e-20)
(1.08807 -0.31997 3.77838e-20)
(1.09709 -0.318403 -1.17559e-20)
(1.10615 -0.316548 0)
(1.11523 -0.314392 -4.70588e-20)
(1.12431 -0.311931 8.20028e-20)
(1.1334 -0.309162 2.20087e-21)
(1.14249 -0.30608 -9.21017e-20)
(1.15156 -0.302684 1.77719e-20)
(1.1606 -0.298966 -2.12032e-20)
(1.16962 -0.294927 -2.21975e-20)
(1.17858 -0.29056 6.77391e-20)
(1.1875 -0.285862 -9.36441e-20)
(1.19634 -0.280831 4.77133e-20)
(1.20511 -0.275469 -2.70062e-20)
(1.21378 -0.269777 1.04897e-19)
(1.22234 -0.263752 -2.53335e-20)
(1.23079 -0.257402 2.97047e-20)
(1.2391 -0.250725 -2.79374e-20)
(1.24726 -0.24372 1.78139e-21)
(1.25525 -0.23639 -1.83759e-19)
(1.26307 -0.228738 -3.23374e-20)
(1.27071 -0.220766 -1.6356e-21)
(1.27813 -0.212484 9.94866e-20)
(1.28533 -0.203902 -3.30953e-20)
(1.2923 -0.195019 7.02085e-20)
(1.29902 -0.185846 -1.06805e-19)
(1.30549 -0.176394 0)
(1.31168 -0.166672 -3.73386e-20)
(1.3176 -0.156685 3.74535e-20)
(1.32322 -0.146445 9.23354e-22)
(1.32855 -0.135967 -2.01028e-20)
(1.33356 -0.125262 -2.04666e-20)
(1.33825 -0.114332 6.17389e-20)
(1.34262 -0.103203 -4.11269e-20)
(1.34665 -0.0919029 3.19055e-20)
(1.35034 -0.0804369 -4.28308e-20)
(1.35371 -0.068805 2.17144e-20)
(1.35674 -0.0569968 -5.37473e-21)
(1.35945 -0.0450286 0)
(1.36183 -0.0329165 5.45918e-21)
(1.36387 -0.0206779 -5.40398e-21)
(1.3656 -0.00832801 -1.08189e-20)
(1.36701 0.00413297 3.22276e-20)
(1.36812 0.0166913 -2.16297e-20)
(1.36894 0.029343 -2.11657e-20)
(1.36949 0.0420951 0)
(1.36977 0.0549281 -8.43395e-20)
(1.36981 0.0678555 8.29925e-20)
(1.36961 0.0808914 -4.05079e-20)
(1.36914 0.0940128 4.00496e-20)
(1.36844 0.107221 4.08744e-20)
(1.36751 0.120517 7.99178e-20)
(1.36638 0.133934 7.91593e-20)
(1.36505 0.147492 0)
(1.36356 0.161223 -8.07369e-20)
(1.36191 0.175162 0)
(1.36013 0.189351 1.37301e-21)
(1.35825 0.203822 -7.84042e-20)
(1.35632 0.218599 7.87432e-20)
(1.35434 0.233727 7.80618e-20)
(1.35233 0.249252 -7.99794e-20)
(1.35027 0.26526 -1.68701e-21)
(1.3482 0.281822 2.72022e-22)
(1.34608 0.299002 2.38974e-19)
(1.34403 0.316957 8.16529e-20)
(1.34158 0.335582 8.25244e-20)
(1.34065 0.355299 -8.01698e-20)
(1.0715 -0.338685 0)
(1.08093 -0.33765 0)
(1.0904 -0.336295 2.81076e-20)
(1.09993 -0.334643 -4.19902e-20)
(1.1095 -0.332691 -1.62823e-20)
(1.11909 -0.330421 0)
(1.1287 -0.327831 0)
(1.13832 -0.324915 1.96031e-20)
(1.14793 -0.321667 -4.10926e-20)
(1.15752 -0.318084 -3.67565e-21)
(1.16707 -0.31416 1.09533e-19)
(1.17658 -0.309894 -2.26341e-20)
(1.18603 -0.305285 2.43546e-20)
(1.19541 -0.300329 -4.90821e-20)
(1.20471 -0.295021 2.69429e-20)
(1.21393 -0.289362 0)
(1.22303 -0.28335 0)
(1.23201 -0.276991 8.86495e-22)
(1.24085 -0.270285 -8.95537e-20)
(1.24954 -0.263237 2.99459e-20)
(1.25806 -0.255847 -3.26797e-20)
(1.26641 -0.248117 3.17503e-20)
(1.27456 -0.240051 3.33689e-20)
(1.28252 -0.231655 -3.24929e-20)
(1.29025 -0.222932 -3.42865e-20)
(1.29774 -0.2139 0)
(1.30498 -0.204564 0)
(1.31195 -0.194927 5.59594e-20)
(1.31865 -0.184997 0)
(1.32504 -0.174792 3.94585e-20)
(1.33114 -0.164324 -3.96061e-20)
(1.33692 -0.153602 -1.98705e-20)
(1.34239 -0.14263 2.02367e-20)
(1.34752 -0.131425 4.21633e-20)
(1.35232 -0.120009 -2.09273e-20)
(1.35676 -0.108398 -2.18473e-20)
(1.36086 -0.0966096 2.24851e-20)
(1.3646 -0.0846594 0)
(1.368 -0.0725681 0)
(1.37105 -0.0603162 5.84559e-21)
(1.37374 -0.0479194 0)
(1.37609 -0.0353926 0)
(1.37811 -0.0227586 -1.70327e-20)
(1.37979 -0.0100231 2.25663e-20)
(1.38117 0.00279551 -1.13076e-20)
(1.38223 0.0156857 2.16561e-20)
(1.38301 0.028667 0)
(1.3835 0.0417336 6.52194e-20)
(1.38371 0.0548652 -5.96536e-22)
(1.38367 0.0680841 0)
(1.38335 0.0813476 -8.36054e-20)
(1.3828 0.0946636 -5.17476e-22)
(1.38201 0.10806 -8.18269e-20)
(1.38101 0.12151 -4.16721e-20)
(1.37982 0.135081 -8.22526e-20)
(1.37844 0.148766 8.16776e-20)
(1.37691 0.162587 8.08225e-20)
(1.37527 0.176587 0)
(1.37357 0.190804 -8.19766e-20)
(1.37184 0.205269 5.45715e-22)
(1.37011 0.220031 0)
(1.3684 0.235147 0)
(1.36671 0.250663 7.98224e-20)
(1.36507 0.266668 0)
(1.36349 0.283224 0)
(1.36196 0.300418 -8.06707e-20)
(1.36056 0.318398 -7.93799e-20)
(1.35882 0.33713 -8.41822e-20)
(1.35842 0.356725 0)
(1.07293 -0.356198 0)
(1.08288 -0.355104 0)
(1.09286 -0.353675 0)
(1.10291 -0.351932 -1.65181e-20)
(1.11301 -0.34987 -1.88888e-20)
(1.12314 -0.347472 -2.50781e-21)
(1.13329 -0.344732 3.73935e-20)
(1.14344 -0.34165 -1.97686e-20)
(1.15359 -0.338217 2.23459e-20)
(1.16372 -0.334432 4.53896e-20)
(1.17382 -0.330291 0)
(1.18386 -0.325786 0)
(1.19384 -0.32092 -1.04587e-21)
(1.20374 -0.315683 8.04992e-20)
(1.21355 -0.310077 -1.12955e-19)
(1.22325 -0.304098 -2.19163e-21)
(1.23284 -0.297748 5.87409e-20)
(1.24228 -0.291033 2.99791e-20)
(1.25156 -0.283956 -1.92602e-21)
(1.26068 -0.276522 0)
(1.26961 -0.268729 6.76273e-20)
(1.27834 -0.260579 0)
(1.28687 -0.252073 7.13326e-20)
(1.29518 -0.24322 -1.09322e-19)
(1.30324 -0.234023 1.12256e-19)
(1.31105 -0.224494 3.9231e-20)
(1.31857 -0.214654 -5.92591e-20)
(1.3258 -0.204516 5.99691e-20)
(1.33273 -0.194086 -4.01127e-20)
(1.33934 -0.183372 0)
(1.34563 -0.172382 -4.23665e-20)
(1.35159 -0.161135 -2.25445e-20)
(1.35721 -0.149648 4.32428e-20)
(1.36248 -0.137923 -4.42457e-20)
(1.36739 -0.125985 2.25272e-20)
(1.37193 -0.113855 -2.26405e-20)
(1.3761 -0.101555 -1.12962e-20)
(1.37989 -0.0891035 1.19983e-20)
(1.3833 -0.0765199 5.85368e-21)
(1.38634 -0.0637889 -1.77194e-20)
(1.38901 -0.0509386 -1.51489e-21)
(1.39132 -0.0379635 0)
(1.39328 -0.0248925 5.73541e-21)
(1.3949 -0.0117478 -1.1374e-20)
(1.39618 0.00146307 1.12598e-20)
(1.39714 0.0147198 0)
(1.39779 0.0280279 0)
(1.39813 0.0413775 2.25618e-20)
(1.39819 0.0547842 -4.38249e-20)
(1.39796 0.0682407 -8.74298e-20)
(1.39746 0.0817549 1.71649e-19)
(1.39673 0.0953267 -4.30969e-20)
(1.39575 0.108932 4.20973e-20)
(1.3946 0.122589 4.13342e-20)
(1.39325 0.136295 -8.34016e-20)
(1.39181 0.150043 8.28013e-20)
(1.3903 0.163867 0)
(1.38878 0.177855 -8.42335e-20)
(1.38727 0.192067 5.03931e-22)
(1.38579 0.206532 8.24358e-20)
(1.38434 0.221291 0)
(1.38296 0.236389 0)
(1.38166 0.251877 0)
(1.38048 0.267847 1.65846e-19)
(1.37944 0.284365 8.49679e-20)
(1.37852 0.301533 8.39583e-20)
(1.37779 0.319494 -1.65312e-19)
(1.37671 0.338225 -1.87796e-21)
(1.37731 0.357894 8.52296e-20)
(1.0745 -0.374849 0)
(1.08499 -0.373701 -3.08348e-20)
(1.09552 -0.372193 3.89616e-20)
(1.10611 -0.370355 -2.82088e-20)
(1.11676 -0.368178 5.48624e-20)
(1.12743 -0.365646 2.05054e-20)
(1.13813 -0.362751 2.17508e-20)
(1.14885 -0.359489 0)
(1.15956 -0.355857 -4.67027e-20)
(1.17026 -0.35185 -4.8446e-20)
(1.18091 -0.347466 4.98952e-20)
(1.19152 -0.3427 -2.76636e-20)
(1.20205 -0.337547 2.98817e-20)
(1.21249 -0.332005 -2.56024e-20)
(1.22284 -0.326073 -1.21752e-19)
(1.23306 -0.319752 -2.29812e-21)
(1.24316 -0.31304 -2.24241e-21)
(1.2531 -0.305943 6.48561e-20)
(1.26288 -0.298461 3.29654e-20)
(1.27247 -0.290601 7.08232e-20)
(1.28185 -0.282369 -6.85179e-20)
(1.29101 -0.27377 0)
(1.29993 -0.264805 2.23123e-21)
(1.30861 -0.255477 0)
(1.31703 -0.245791 -3.84909e-20)
(1.32517 -0.235748 -3.93266e-20)
(1.33301 -0.225364 2.00722e-20)
(1.34054 -0.214658 0)
(1.34773 -0.203655 2.20233e-20)
(1.35457 -0.192368 4.38959e-20)
(1.36106 -0.180819 -4.40145e-20)
(1.36719 -0.169023 2.19768e-20)
(1.37295 -0.156984 -4.60087e-20)
(1.37835 -0.144695 9.21794e-20)
(1.38336 -0.132186 -2.33984e-20)
(1.38798 -0.119502 0)
(1.3922 -0.106663 -1.23622e-20)
(1.39602 -0.0936833 5.56408e-22)
(1.39945 -0.0805815 1.84946e-20)
(1.40249 -0.0673276 -1.54369e-20)
(1.40513 -0.0539669 3.00158e-21)
(1.40739 -0.0405193 -9.22032e-21)
(1.40926 -0.0269984 6.03388e-21)
(1.41077 -0.0134262 0)
(1.41191 0.000192905 0)
(1.4127 0.0138417 0)
(1.41315 0.0275186 2.34852e-20)
(1.41328 0.0412137 2.31848e-20)
(1.41311 0.0549256 0)
(1.41264 0.0686575 4.45444e-20)
(1.41192 0.0824098 4.5211e-20)
(1.41096 0.0961472 4.41162e-20)
(1.40981 0.109912 0)
(1.4085 0.123668 0)
(1.40711 0.137408 -8.55552e-20)
(1.4057 0.151206 8.50614e-20)
(1.40431 0.165078 0)
(1.40297 0.179112 8.39885e-20)
(1.40164 0.193337 -8.34929e-20)
(1.40039 0.207779 -8.44886e-20)
(1.39921 0.222482 8.38621e-20)
(1.39817 0.237514 -8.25464e-20)
(1.3973 0.252931 0)
(1.3966 0.268826 -8.23534e-20)
(1.39609 0.285267 1.68081e-21)
(1.39571 0.302342 -1.67578e-19)
(1.39553 0.320206 -1.71171e-19)
(1.39494 0.338758 1.69174e-19)
(1.39646 0.358195 -8.42637e-20)
(1.07614 -0.394758 -7.7018e-21)
(1.08725 -0.393544 0)
(1.09838 -0.391947 -8.40688e-21)
(1.10957 -0.390001 4.80678e-20)
(1.12081 -0.387699 -8.92115e-20)
(1.13207 -0.38502 2.0728e-20)
(1.14336 -0.381956 -2.18318e-20)
(1.15465 -0.378504 4.91417e-20)
(1.16594 -0.374662 -2.4605e-20)
(1.17721 -0.370424 -2.5441e-20)
(1.18844 -0.365782 -2.85829e-20)
(1.19962 -0.360729 8.65631e-20)
(1.21073 -0.355269 -2.75218e-20)
(1.22175 -0.349401 9.55815e-20)
(1.23265 -0.343119 3.36097e-20)
(1.24343 -0.336431 2.40239e-21)
(1.25407 -0.329326 -6.73427e-20)
(1.26454 -0.321805 0)
(1.27482 -0.313878 0)
(1.2849 -0.305547 -3.85416e-20)
(1.29474 -0.296827 -3.71427e-20)
(1.30435 -0.287727 -7.93927e-20)
(1.3137 -0.278249 4.03139e-20)
(1.3228 -0.268383 8.2991e-20)
(1.33161 -0.258144 -8.282e-20)
(1.3401 -0.247576 2.19965e-20)
(1.34828 -0.236668 2.24467e-20)
(1.35612 -0.225419 0)
(1.36362 -0.213851 -2.20196e-20)
(1.37074 -0.201976 -4.63118e-20)
(1.37748 -0.189818 -5.93847e-22)
(1.38383 -0.177401 4.71333e-20)
(1.38976 -0.164744 -2.47198e-20)
(1.39528 -0.151851 0)
(1.40039 -0.138746 1.2664e-20)
(1.40508 -0.125462 -1.28106e-20)
(1.40934 -0.112002 1.23405e-20)
(1.41319 -0.0984107 -2.55305e-20)
(1.41659 -0.0847282 0)
(1.41957 -0.0709231 -3.27319e-21)
(1.42213 -0.0570317 3.17764e-21)
(1.42427 -0.0430678 -4.8223e-21)
(1.426 -0.0290511 1.87018e-20)
(1.42733 -0.0150052 -3.7028e-20)
(1.42827 -0.000935664 2.44041e-20)
(1.42882 0.0131332 2.41161e-20)
(1.42902 0.0272025 -2.30422e-20)
(1.42887 0.0412457 4.78337e-20)
(1.42841 0.0552591 -4.65702e-20)
(1.42769 0.069243 -1.14638e-19)
(1.42675 0.0832141 6.34587e-22)
(1.42563 0.0971711 -4.42621e-20)
(1.42438 0.111071 0)
(1.42308 0.124896 0)
(1.4218 0.138698 -8.75641e-20)
(1.42052 0.15254 1.29984e-19)
(1.41926 0.16645 -8.62142e-20)
(1.41803 0.180466 0)
(1.41686 0.194632 8.57471e-20)
(1.41579 0.209007 1.68537e-19)
(1.41489 0.223632 -8.3601e-20)
(1.41417 0.238574 -1.05162e-21)
(1.41368 0.253882 8.32284e-20)
(1.41339 0.269646 2.34143e-22)
(1.41329 0.285936 -1.68331e-19)
(1.41328 0.30283 1.67345e-19)
(1.41341 0.320478 8.45977e-20)
(1.41305 0.338729 0)
(1.41491 0.357777 0)
(1.07787 -0.416033 7.7164e-21)
(1.0896 -0.414751 4.62673e-20)
(1.10139 -0.413061 -3.67335e-20)
(1.11323 -0.410991 0)
(1.12512 -0.408536 -1.05298e-20)
(1.13703 -0.405684 -4.7956e-20)
(1.14895 -0.402425 3.48653e-20)
(1.16088 -0.398759 -6.66996e-20)
(1.1728 -0.394679 5.28785e-20)
(1.18468 -0.390179 0)
(1.19652 -0.385266 1.32572e-20)
(1.20829 -0.379925 0)
(1.22 -0.374141 3.45722e-20)
(1.23162 -0.367923 -9.75364e-20)
(1.24312 -0.361268 0)
(1.25447 -0.354177 0)
(1.26566 -0.346654 0)
(1.27667 -0.338694 -5.71768e-20)
(1.28749 -0.330304 7.65623e-20)
(1.29809 -0.321486 3.86976e-20)
(1.30844 -0.312261 0)
(1.31853 -0.302625 0)
(1.32835 -0.292583 0)
(1.33786 -0.282149 -1.11046e-19)
(1.34706 -0.271316 1.33399e-19)
(1.35594 -0.260106 -6.70521e-20)
(1.36446 -0.248555 -4.62758e-20)
(1.37262 -0.23666 4.72782e-20)
(1.3804 -0.224438 -4.72412e-20)
(1.38778 -0.211911 2.48531e-20)
(1.39474 -0.199116 -4.91616e-20)
(1.40127 -0.186086 2.37965e-20)
(1.40737 -0.172809 5.03771e-20)
(1.41305 -0.159285 2.61957e-20)
(1.41829 -0.145547 -1.2577e-20)
(1.42307 -0.131632 1.27162e-20)
(1.42741 -0.11757 0)
(1.43127 -0.10338 -6.32519e-22)
(1.43467 -0.0890928 6.69152e-21)
(1.43762 -0.0746763 1.38823e-23)
(1.44008 -0.0601827 -3.28995e-21)
(1.44209 -0.0456263 8.10774e-21)
(1.44362 -0.0310367 -1.30423e-20)
(1.44473 -0.016444 -6.51654e-21)
(1.4454 -0.00187435 1.28883e-20)
(1.44569 0.0126538 0)
(1.44562 0.0271223 -4.95135e-20)
(1.44524 0.0415074 -7.29493e-20)
(1.44459 0.0558231 1.42494e-22)
(1.44372 0.0700806 7.13592e-20)
(1.44266 0.0842555 0)
(1.44151 0.0982967 0)
(1.44027 0.112297 -4.64994e-20)
(1.43899 0.126275 9.10913e-20)
(1.43771 0.140185 4.58241e-22)
(1.43642 0.154065 -4.46352e-20)
(1.43517 0.167967 1.74643e-19)
(1.43398 0.181952 -8.6232e-20)
(1.43292 0.196059 -8.50147e-20)
(1.43202 0.210339 -1.70949e-19)
(1.43134 0.224832 1.82502e-22)
(1.43087 0.239612 1.00397e-21)
(1.43063 0.254732 9.95735e-22)
(1.43056 0.270278 1.68156e-19)
(1.43064 0.286315 -8.2984e-20)
(1.43075 0.302915 -8.37911e-20)
(1.43092 0.320206 8.5986e-20)
(1.43055 0.338096 8.71207e-20)
(1.43151 0.356242 0)
(1.07973 -0.438768 -3.70523e-20)
(1.09215 -0.437421 1.77264e-20)
(1.10462 -0.435637 0)
(1.11714 -0.433456 -1.171e-20)
(1.12971 -0.430867 0)
(1.14232 -0.427847 3.89648e-20)
(1.15494 -0.424398 -2.5081e-20)
(1.16755 -0.420513 5.66373e-20)
(1.18016 -0.416184 -5.74224e-20)
(1.19273 -0.411402 -1.60463e-20)
(1.20526 -0.40617 8.12204e-20)
(1.2177 -0.40049 -6.53084e-20)
(1.23004 -0.39435 0)
(1.24228 -0.387741 -7.30023e-20)
(1.25438 -0.380671 1.4798e-19)
(1.26634 -0.373148 -7.50112e-20)
(1.27813 -0.365161 0)
(1.28975 -0.356716 -1.01683e-19)
(1.30114 -0.347812 1.44508e-19)
(1.31231 -0.338467 -8.38386e-20)
(1.3232 -0.328686 0)
(1.33379 -0.318497 0)
(1.34408 -0.307889 0)
(1.35405 -0.296834 2.25629e-20)
(1.36368 -0.285367 4.79114e-20)
(1.37294 -0.273514 -4.79167e-20)
(1.38182 -0.261293 2.38858e-20)
(1.39031 -0.248725 0)
(1.39837 -0.235819 5.10228e-20)
(1.40603 -0.222581 -7.59962e-20)
(1.41324 -0.209055 0)
(1.42 -0.195285 5.24784e-20)
(1.42629 -0.181288 -2.57643e-20)
(1.4321 -0.167062 -2.60213e-20)
(1.43743 -0.152634 1.38322e-20)
(1.44226 -0.138019 0)
(1.4466 -0.123242 0)
(1.45041 -0.10833 1.34385e-20)
(1.45371 -0.0933049 0)
(1.4565 -0.0781973 -6.83997e-21)
(1.45876 -0.06303 1.65721e-21)
(1.46054 -0.0478651 6.69824e-21)
(1.46185 -0.032737 -1.37586e-22)
(1.46274 -0.0176476 1.31754e-20)
(1.46323 -0.00264401 2.65654e-20)
(1.46338 0.0123055 1.30824e-20)
(1.46319 0.0271747 -2.65303e-20)
(1.46273 0.0419443 -2.56746e-20)
(1.462 0.0565791 -4.96624e-20)
(1.46108 0.0710603 4.92142e-20)
(1.45997 0.0854415 0)
(1.45872 0.09975 -4.81823e-20)
(1.45739 0.113932 -4.79982e-22)
(1.456 0.127974 5.56943e-22)
(1.45459 0.141921 -9.02532e-20)
(1.4532 0.155818 0)
(1.45189 0.169701 -4.42561e-20)
(1.45071 0.183617 0)
(1.4497 0.197607 0)
(1.44889 0.21173 8.45552e-20)
(1.44829 0.226031 -9.00801e-22)
(1.44788 0.240581 -8.45631e-20)
(1.44766 0.25543 8.44194e-20)
(1.44755 0.270654 -8.31724e-20)
(1.44751 0.28631 8.44416e-20)
(1.44742 0.302461 -8.37571e-20)
(1.44729 0.319222 -1.7107e-19)
(1.44665 0.336512 -1.74925e-19)