/*--------------------------------*- C++ -*----------------------------------*\
| =========                 |                                                 |
| \\      /  F ield         | OpenFOAM: The Open Source CFD Toolbox           |
|  \\    /   O peration     | Version:  2312                                  |
|   \\  /    A nd           | Website:  www.openfoam.com                      |
|    \\/     M anipulation  |                                                 |
\*---------------------------------------------------------------------------*/
FoamFile
{
    version     2.0;
    format      ascii;
    arch        "LSB;label=32;scalar=64";
    class       volScalarField;
    location    "1600";
    object      k;
}
// * * * * * * * * * * * * * * * * * * * * * * * * * * * * * * * * * * * * * //

dimensions      [0 2 -2 0 0 0 0];

internalField   nonuniform List<scalar> 
76025
(
5.17397e-06
5.17969e-06
5.18589e-06
5.19129e-06
5.19502e-06
5.20335e-06
5.20731e-06
5.21478e-06
5.22018e-06
5.22764e-06
5.23457e-06
5.2426e-06
5.25173e-06
5.26043e-06
5.27063e-06
5.28063e-06
5.29068e-06
5.30268e-06
5.31225e-06
5.32432e-06
5.33621e-06
5.34945e-06
5.36075e-06
5.37401e-06
5.38635e-06
5.39995e-06
5.41492e-06
5.42823e-06
5.44541e-06
5.46043e-06
5.47613e-06
5.49624e-06
5.51714e-06
5.5413e-06
5.56666e-06
5.5942e-06
5.62678e-06
5.6622e-06
5.70362e-06
5.74862e-06
5.79859e-06
5.85813e-06
5.92529e-06
6.00127e-06
6.08646e-06
6.18474e-06
6.29377e-06
6.41788e-06
6.55949e-06
6.71375e-06
6.89228e-06
7.08956e-06
7.31366e-06
7.55192e-06
7.84759e-06
8.15626e-06
8.53035e-06
8.95715e-06
9.46525e-06
1.0075e-05
1.0789e-05
1.16459e-05
1.26514e-05
1.3876e-05
1.5369e-05
1.703e-05
1.89076e-05
2.1084e-05
2.31892e-05
5.2807e-06
5.28737e-06
5.29419e-06
5.30145e-06
5.30695e-06
5.3144e-06
5.32068e-06
5.32796e-06
5.33516e-06
5.3428e-06
5.35054e-06
5.35873e-06
5.36757e-06
5.37678e-06
5.38726e-06
5.39777e-06
5.40919e-06
5.42099e-06
5.43333e-06
5.44591e-06
5.45918e-06
5.4735e-06
5.4881e-06
5.50363e-06
5.52007e-06
5.53669e-06
5.55491e-06
5.57378e-06
5.59418e-06
5.61644e-06
5.64044e-06
5.66567e-06
5.69426e-06
5.72488e-06
5.75918e-06
5.79706e-06
5.83885e-06
5.88634e-06
5.93883e-06
5.99736e-06
6.06311e-06
6.1361e-06
6.21911e-06
6.31093e-06
6.4146e-06
6.52994e-06
6.65953e-06
6.80422e-06
6.96499e-06
7.14604e-06
7.34692e-06
7.57496e-06
7.82943e-06
8.12397e-06
8.45619e-06
8.84491e-06
9.29607e-06
9.82834e-06
1.04586e-05
1.12079e-05
1.20999e-05
1.31536e-05
1.43854e-05
1.58181e-05
1.74402e-05
1.92969e-05
2.14028e-05
2.37743e-05
2.64259e-05
5.4107e-06
5.41779e-06
5.42505e-06
5.43311e-06
5.44062e-06
5.44869e-06
5.45668e-06
5.46503e-06
5.47369e-06
5.4827e-06
5.49198e-06
5.50152e-06
5.51161e-06
5.52194e-06
5.53331e-06
5.54516e-06
5.558e-06
5.57146e-06
5.58582e-06
5.60088e-06
5.61668e-06
5.63347e-06
5.65128e-06
5.67013e-06
5.6904e-06
5.7117e-06
5.73457e-06
5.75899e-06
5.78537e-06
5.81378e-06
5.84488e-06
5.87832e-06
5.91492e-06
5.95486e-06
5.99872e-06
6.04691e-06
6.09994e-06
6.15869e-06
6.22363e-06
6.2954e-06
6.37491e-06
6.46324e-06
6.56155e-06
6.67067e-06
6.79196e-06
6.92677e-06
7.07711e-06
7.24426e-06
7.43106e-06
7.63987e-06
7.8751e-06
8.14061e-06
8.4438e-06
8.79068e-06
9.19207e-06
9.66002e-06
1.0209e-05
1.08569e-05
1.16214e-05
1.25251e-05
1.35855e-05
1.4823e-05
1.62467e-05
1.78828e-05
1.97352e-05
2.18413e-05
2.41752e-05
2.67979e-05
2.95411e-05
5.56656e-06
5.57457e-06
5.58271e-06
5.5913e-06
5.6001e-06
5.60928e-06
5.61877e-06
5.62862e-06
5.63887e-06
5.64953e-06
5.66065e-06
5.67218e-06
5.68427e-06
5.69682e-06
5.7101e-06
5.72411e-06
5.73901e-06
5.75486e-06
5.77171e-06
5.78964e-06
5.80868e-06
5.82893e-06
5.85051e-06
5.8735e-06
5.89811e-06
5.92441e-06
5.95268e-06
5.98304e-06
6.01583e-06
6.0512e-06
6.08959e-06
6.13116e-06
6.17636e-06
6.22561e-06
6.27935e-06
6.3381e-06
6.40248e-06
6.47322e-06
6.55105e-06
6.63676e-06
6.7313e-06
6.83584e-06
6.9516e-06
7.07983e-06
7.22201e-06
7.37996e-06
7.55574e-06
7.75187e-06
7.97138e-06
8.21843e-06
8.49789e-06
8.81652e-06
9.18222e-06
9.60533e-06
1.00981e-05
1.06755e-05
1.13541e-05
1.21522e-05
1.30883e-05
1.4182e-05
1.54475e-05
1.6904e-05
1.85567e-05
2.04321e-05
2.2526e-05
2.4867e-05
2.74284e-05
3.02242e-05
3.314e-05
5.75283e-06
5.76243e-06
5.77215e-06
5.78203e-06
5.79221e-06
5.80281e-06
5.81384e-06
5.82534e-06
5.83736e-06
5.84994e-06
5.86314e-06
5.87694e-06
5.89144e-06
5.90664e-06
5.92263e-06
5.93951e-06
5.95737e-06
5.97633e-06
5.99649e-06
6.01795e-06
6.04082e-06
6.0652e-06
6.09125e-06
6.11906e-06
6.14886e-06
6.18083e-06
6.21519e-06
6.25215e-06
6.29201e-06
6.33502e-06
6.38154e-06
6.43189e-06
6.48651e-06
6.54589e-06
6.61056e-06
6.68111e-06
6.75824e-06
6.84276e-06
6.93552e-06
7.03749e-06
7.14975e-06
7.27363e-06
7.41057e-06
7.56218e-06
7.73034e-06
7.91735e-06
8.12606e-06
8.35992e-06
8.62333e-06
8.92183e-06
9.26243e-06
9.65377e-06
1.01065e-05
1.06331e-05
1.12481e-05
1.19679e-05
1.28094e-05
1.37899e-05
1.49257e-05
1.62325e-05
1.77222e-05
1.94106e-05
2.13022e-05
2.34212e-05
2.57523e-05
2.83232e-05
3.10731e-05
3.40161e-05
3.6995e-05
5.97742e-06
5.98878e-06
6.00044e-06
6.01227e-06
6.02445e-06
6.03705e-06
6.05012e-06
6.06373e-06
6.07796e-06
6.09285e-06
6.10849e-06
6.12492e-06
6.14222e-06
6.16043e-06
6.17963e-06
6.19991e-06
6.22138e-06
6.24413e-06
6.26831e-06
6.29402e-06
6.32142e-06
6.35065e-06
6.38187e-06
6.41524e-06
6.45105e-06
6.48949e-06
6.5308e-06
6.57523e-06
6.62311e-06
6.67472e-06
6.73049e-06
6.79077e-06
6.85609e-06
6.92705e-06
7.00425e-06
7.08839e-06
7.18031e-06
7.28095e-06
7.39132e-06
7.51264e-06
7.6462e-06
7.79365e-06
7.95685e-06
8.13793e-06
8.33948e-06
8.56469e-06
8.81753e-06
9.10288e-06
9.42686e-06
9.79699e-06
1.02224e-05
1.07141e-05
1.12848e-05
1.19487e-05
1.27213e-05
1.36185e-05
1.4656e-05
1.58483e-05
1.7209e-05
1.87501e-05
2.04817e-05
2.24168e-05
2.45572e-05
2.69185e-05
2.94735e-05
3.22353e-05
3.51138e-05
3.81223e-05
4.10754e-05
6.2503e-06
6.2634e-06
6.27708e-06
6.29116e-06
6.30575e-06
6.32092e-06
6.33667e-06
6.35307e-06
6.37016e-06
6.38804e-06
6.40678e-06
6.42646e-06
6.44717e-06
6.46899e-06
6.492e-06
6.51631e-06
6.54203e-06
6.56929e-06
6.59822e-06
6.62898e-06
6.66173e-06
6.69665e-06
6.73391e-06
6.77383e-06
6.81666e-06
6.86264e-06
6.91204e-06
6.96518e-06
7.02242e-06
7.08413e-06
7.15078e-06
7.22284e-06
7.30092e-06
7.38574e-06
7.47802e-06
7.57864e-06
7.68859e-06
7.80904e-06
7.9413e-06
8.08689e-06
8.24756e-06
8.42551e-06
8.62325e-06
8.84378e-06
9.09077e-06
9.36872e-06
9.68314e-06
1.00408e-05
1.04497e-05
1.09196e-05
1.14616e-05
1.20885e-05
1.2814e-05
1.36525e-05
1.46187e-05
1.57262e-05
1.69882e-05
1.84157e-05
2.00195e-05
2.18087e-05
2.37909e-05
2.59736e-05
2.83516e-05
3.0927e-05
3.36579e-05
3.65383e-05
3.94575e-05
4.24432e-05
4.52156e-05
6.58322e-06
6.59838e-06
6.61434e-06
6.63092e-06
6.64827e-06
6.66642e-06
6.68539e-06
6.70519e-06
6.72589e-06
6.74753e-06
6.77021e-06
6.79401e-06
6.81902e-06
6.84534e-06
6.87308e-06
6.90235e-06
6.9333e-06
6.96606e-06
7.00081e-06
7.0377e-06
7.07696e-06
7.11874e-06
7.16344e-06
7.21131e-06
7.26264e-06
7.31772e-06
7.37692e-06
7.44061e-06
7.50922e-06
7.58325e-06
7.66324e-06
7.74983e-06
7.84376e-06
7.94589e-06
8.05715e-06
8.17864e-06
8.31169e-06
8.45777e-06
8.61866e-06
8.79643e-06
8.99357e-06
9.21312e-06
9.45862e-06
9.73434e-06
1.00454e-05
1.03981e-05
1.07996e-05
1.12588e-05
1.17856e-05
1.23913e-05
1.30881e-05
1.38891e-05
1.48074e-05
1.58558e-05
1.70463e-05
1.83896e-05
1.98955e-05
2.1572e-05
2.34271e-05
2.5466e-05
2.76907e-05
3.01003e-05
3.2677e-05
3.54079e-05
3.82375e-05
4.11379e-05
4.40034e-05
4.68452e-05
4.9274e-05
6.99045e-06
7.0085e-06
7.02745e-06
7.04717e-06
7.06786e-06
7.0896e-06
7.1124e-06
7.1363e-06
7.16134e-06
7.1876e-06
7.21514e-06
7.24405e-06
7.27444e-06
7.30642e-06
7.3401e-06
7.37563e-06
7.41315e-06
7.45285e-06
7.4949e-06
7.53954e-06
7.58694e-06
7.63754e-06
7.69162e-06
7.74951e-06
7.81154e-06
7.87812e-06
7.94968e-06
8.02671e-06
8.10977e-06
8.19949e-06
8.29655e-06
8.40183e-06
8.51631e-06
8.64105e-06
8.77734e-06
8.92666e-06
9.09081e-06
9.27186e-06
9.4723e-06
9.69507e-06
9.94375e-06
1.02226e-05
1.05366e-05
1.08917e-05
1.12945e-05
1.17532e-05
1.22768e-05
1.28754e-05
1.35599e-05
1.43418e-05
1.5233e-05
1.62447e-05
1.7388e-05
1.86725e-05
2.01071e-05
2.16992e-05
2.34557e-05
2.53811e-05
2.74789e-05
2.97481e-05
3.2181e-05
3.47664e-05
3.74707e-05
4.02701e-05
4.30968e-05
4.59047e-05
4.86177e-05
5.11534e-05
5.3161e-05
7.49055e-06
7.51272e-06
7.53587e-06
7.55987e-06
7.58501e-06
7.61139e-06
7.63907e-06
7.6681e-06
7.69857e-06
7.73055e-06
7.76414e-06
7.79944e-06
7.83657e-06
7.87565e-06
7.91684e-06
7.9603e-06
8.0062e-06
8.05475e-06
8.1062e-06
8.16077e-06
8.21891e-06
8.28096e-06
8.34726e-06
8.41822e-06
8.49428e-06
8.57595e-06
8.6638e-06
8.7585e-06
8.86077e-06
8.97148e-06
9.09157e-06
9.22221e-06
9.3648e-06
9.5208e-06
9.69202e-06
9.88061e-06
1.00891e-05
1.03205e-05
1.05783e-05
1.08667e-05
1.11906e-05
1.15558e-05
1.19693e-05
1.24379e-05
1.29701e-05
1.35748e-05
1.4262e-05
1.50416e-05
1.59239e-05
1.69189e-05
1.80361e-05
1.92841e-05
2.06705e-05
2.2202e-05
2.38843e-05
2.57215e-05
2.77167e-05
2.98695e-05
3.21762e-05
3.46276e-05
3.72031e-05
3.98834e-05
4.26174e-05
4.538e-05
4.80886e-05
5.0691e-05
5.31366e-05
5.51839e-05
5.68976e-05
8.10934e-06
8.13721e-06
8.16619e-06
8.19614e-06
8.2274e-06
8.26009e-06
8.29432e-06
8.33019e-06
8.36778e-06
8.40724e-06
8.44868e-06
8.49225e-06
8.5381e-06
8.58639e-06
8.63732e-06
8.69108e-06
8.74793e-06
8.80808e-06
8.87195e-06
8.93995e-06
9.01243e-06
9.08983e-06
9.1726e-06
9.2613e-06
9.35651e-06
9.45893e-06
9.56936e-06
9.68871e-06
9.81802e-06
9.95849e-06
1.01115e-05
1.02788e-05
1.04623e-05
1.06641e-05
1.0887e-05
1.11339e-05
1.14085e-05
1.17149e-05
1.2058e-05
1.24432e-05
1.28769e-05
1.33662e-05
1.39189e-05
1.45433e-05
1.52474e-05
1.60401e-05
1.693e-05
1.79257e-05
1.9035e-05
2.02652e-05
2.16228e-05
2.31132e-05
2.47412e-05
2.65102e-05
2.84228e-05
3.04788e-05
3.26759e-05
3.50069e-05
3.74588e-05
4.00147e-05
4.26396e-05
4.53126e-05
4.79626e-05
5.05768e-05
5.3047e-05
5.53308e-05
5.73473e-05
5.88229e-05
6.05041e-05
8.88415e-06
8.91972e-06
8.95667e-06
8.99482e-06
9.03453e-06
9.07598e-06
9.11929e-06
9.16458e-06
9.212e-06
9.26171e-06
9.3139e-06
9.36877e-06
9.42651e-06
9.48737e-06
9.5516e-06
9.61949e-06
9.69137e-06
9.76779e-06
9.84914e-06
9.93588e-06
1.00285e-05
1.01276e-05
1.02339e-05
1.03481e-05
1.04711e-05
1.06038e-05
1.07476e-05
1.09036e-05
1.10734e-05
1.12588e-05
1.14618e-05
1.1685e-05
1.19309e-05
1.22028e-05
1.25044e-05
1.28397e-05
1.32134e-05
1.36309e-05
1.40979e-05
1.46208e-05
1.52065e-05
1.58624e-05
1.65959e-05
1.74152e-05
1.8327e-05
1.93378e-05
2.04539e-05
2.16809e-05
2.30241e-05
2.4488e-05
2.60761e-05
2.77913e-05
2.96353e-05
3.16083e-05
3.37083e-05
3.593e-05
3.82638e-05
4.06958e-05
4.32027e-05
4.57639e-05
4.83277e-05
5.08819e-05
5.33288e-05
5.56853e-05
5.77872e-05
5.96154e-05
6.09999e-05
6.21397e-05
6.40452e-05
9.87017e-06
9.91628e-06
9.96422e-06
1.00138e-05
1.00654e-05
1.01192e-05
1.01755e-05
1.02342e-05
1.02958e-05
1.03603e-05
1.0428e-05
1.04993e-05
1.05743e-05
1.06536e-05
1.07373e-05
1.08263e-05
1.09209e-05
1.10216e-05
1.11291e-05
1.12441e-05
1.13673e-05
1.14995e-05
1.16419e-05
1.17955e-05
1.19616e-05
1.21418e-05
1.23378e-05
1.25514e-05
1.27849e-05
1.30408e-05
1.3322e-05
1.36318e-05
1.39738e-05
1.43519e-05
1.47706e-05
1.52347e-05
1.57494e-05
1.63204e-05
1.69533e-05
1.76542e-05
1.84292e-05
1.92844e-05
2.02257e-05
2.12591e-05
2.23892e-05
2.36227e-05
2.49598e-05
2.6405e-05
2.79609e-05
2.96295e-05
3.14121e-05
3.33089e-05
3.53179e-05
3.74356e-05
3.96541e-05
4.1963e-05
4.43441e-05
4.67797e-05
4.92346e-05
5.16926e-05
5.40771e-05
5.6402e-05
5.85275e-05
6.0518e-05
6.20637e-05
6.32613e-05
6.39246e-05
6.53999e-05
6.71848e-05
1.11521e-05
1.12133e-05
1.12771e-05
1.13434e-05
1.14125e-05
1.14848e-05
1.15604e-05
1.16397e-05
1.17228e-05
1.18101e-05
1.1902e-05
1.19989e-05
1.21014e-05
1.22102e-05
1.23257e-05
1.24487e-05
1.25798e-05
1.27198e-05
1.28698e-05
1.30307e-05
1.32037e-05
1.339e-05
1.35913e-05
1.38091e-05
1.40453e-05
1.4302e-05
1.45815e-05
1.48863e-05
1.52193e-05
1.55836e-05
1.59826e-05
1.642e-05
1.68997e-05
1.74258e-05
1.80027e-05
1.86348e-05
1.93267e-05
2.00829e-05
2.09082e-05
2.18068e-05
2.27832e-05
2.38415e-05
2.49856e-05
2.6219e-05
2.75451e-05
2.8967e-05
3.04868e-05
3.21085e-05
3.38285e-05
3.56476e-05
3.75644e-05
3.95762e-05
4.16767e-05
4.38582e-05
4.61062e-05
4.84064e-05
5.07303e-05
5.30631e-05
5.53518e-05
5.75991e-05
5.96835e-05
6.1674e-05
6.33612e-05
6.48272e-05
6.54306e-05
6.60786e-05
6.63109e-05
6.95959e-05
7.32629e-05
1.28689e-05
1.29537e-05
1.30425e-05
1.31354e-05
1.32327e-05
1.33349e-05
1.34423e-05
1.35553e-05
1.36744e-05
1.38003e-05
1.39335e-05
1.40747e-05
1.42246e-05
1.43839e-05
1.45535e-05
1.47344e-05
1.49277e-05
1.51345e-05
1.53561e-05
1.5594e-05
1.58498e-05
1.61251e-05
1.64218e-05
1.6742e-05
1.70879e-05
1.74618e-05
1.78662e-05
1.83039e-05
1.87775e-05
1.92903e-05
1.98453e-05
2.04455e-05
2.10942e-05
2.17946e-05
2.25499e-05
2.33634e-05
2.42383e-05
2.51775e-05
2.61842e-05
2.72612e-05
2.84112e-05
2.9637e-05
3.09411e-05
3.23258e-05
3.37933e-05
3.53452e-05
3.6983e-05
3.87074e-05
4.05178e-05
4.24142e-05
4.43878e-05
4.64318e-05
4.8535e-05
5.06863e-05
5.2863e-05
5.50511e-05
5.7206e-05
5.93301e-05
6.13353e-05
6.32726e-05
6.49297e-05
6.64836e-05
6.74962e-05
6.75019e-05
6.72395e-05
6.78405e-05
6.86726e-05
7.47201e-05
8.42052e-05
1.52715e-05
1.53972e-05
1.55298e-05
1.56692e-05
1.58165e-05
1.59722e-05
1.61367e-05
1.63106e-05
1.64944e-05
1.6689e-05
1.68952e-05
1.71137e-05
1.73455e-05
1.75916e-05
1.78531e-05
1.81312e-05
1.84271e-05
1.87421e-05
1.90777e-05
1.94353e-05
1.98166e-05
2.0223e-05
2.06565e-05
2.11187e-05
2.16115e-05
2.21367e-05
2.26965e-05
2.32925e-05
2.39271e-05
2.46022e-05
2.53198e-05
2.6082e-05
2.68909e-05
2.77486e-05
2.86572e-05
2.96188e-05
3.06357e-05
3.17099e-05
3.28438e-05
3.40395e-05
3.52992e-05
3.66249e-05
3.80185e-05
3.94818e-05
4.10159e-05
4.26217e-05
4.4299e-05
4.60469e-05
4.7863e-05
4.97428e-05
5.16814e-05
5.36659e-05
5.56754e-05
5.76961e-05
5.96964e-05
6.16672e-05
6.3536e-05
6.5352e-05
6.69506e-05
6.84861e-05
6.95644e-05
6.97805e-05
6.92974e-05
6.85713e-05
6.79766e-05
7.01954e-05
7.26672e-05
8.32981e-05
0.000102912
1.88528e-05
1.90549e-05
1.92687e-05
1.94939e-05
1.97315e-05
1.9982e-05
2.0246e-05
2.05241e-05
2.08169e-05
2.11251e-05
2.14494e-05
2.17905e-05
2.21493e-05
2.25264e-05
2.29228e-05
2.33393e-05
2.37768e-05
2.42361e-05
2.4718e-05
2.52236e-05
2.57538e-05
2.63094e-05
2.68914e-05
2.75008e-05
2.81386e-05
2.88058e-05
2.95035e-05
3.02327e-05
3.09949e-05
3.17912e-05
3.26229e-05
3.34916e-05
3.4399e-05
3.53466e-05
3.63365e-05
3.73707e-05
3.84511e-05
3.95799e-05
4.07593e-05
4.19915e-05
4.32784e-05
4.46217e-05
4.60229e-05
4.74828e-05
4.90016e-05
5.05788e-05
5.22121e-05
5.38989e-05
5.56335e-05
5.74083e-05
5.92165e-05
6.10406e-05
6.28562e-05
6.46408e-05
6.63616e-05
6.80056e-05
6.94634e-05
7.08763e-05
7.19321e-05
7.22304e-05
7.18128e-05
7.08319e-05
6.95392e-05
6.92269e-05
6.94324e-05
7.38913e-05
7.98329e-05
9.80451e-05
0.000137504
2.45628e-05
2.48879e-05
2.52287e-05
2.55846e-05
2.59561e-05
2.63434e-05
2.67466e-05
2.71659e-05
2.76012e-05
2.80529e-05
2.85211e-05
2.90058e-05
2.95073e-05
3.00255e-05
3.05608e-05
3.11131e-05
3.16827e-05
3.22697e-05
3.28743e-05
3.34966e-05
3.4137e-05
3.47957e-05
3.5473e-05
3.61695e-05
3.68856e-05
3.76221e-05
3.83798e-05
3.91596e-05
3.99627e-05
4.07906e-05
4.16446e-05
4.25265e-05
4.34384e-05
4.43822e-05
4.53602e-05
4.63748e-05
4.74284e-05
4.85232e-05
4.96615e-05
5.08452e-05
5.20761e-05
5.3355e-05
5.46826e-05
5.60586e-05
5.74814e-05
5.89481e-05
6.04542e-05
6.19955e-05
6.35606e-05
6.51399e-05
6.6728e-05
6.82824e-05
6.98088e-05
7.12414e-05
7.26028e-05
7.37747e-05
7.46924e-05
7.48565e-05
7.4423e-05
7.3464e-05
7.21577e-05
7.04448e-05
6.93713e-05
7.06752e-05
7.27568e-05
8.04707e-05
9.18309e-05
0.000123301
0.000167692
3.37388e-05
3.41872e-05
3.46508e-05
3.5128e-05
3.56188e-05
3.61224e-05
3.66384e-05
3.71663e-05
3.77055e-05
3.82557e-05
3.88164e-05
3.93872e-05
3.99677e-05
4.05575e-05
4.11562e-05
4.17637e-05
4.23796e-05
4.30039e-05
4.36364e-05
4.42771e-05
4.49261e-05
4.55838e-05
4.62504e-05
4.69266e-05
4.7613e-05
4.83107e-05
4.90207e-05
4.97446e-05
5.04839e-05
5.12404e-05
5.20163e-05
5.28139e-05
5.36355e-05
5.44837e-05
5.53612e-05
5.62706e-05
5.72142e-05
5.81944e-05
5.9213e-05
6.02715e-05
6.13703e-05
6.25096e-05
6.36884e-05
6.49046e-05
6.6154e-05
6.74304e-05
6.87276e-05
7.00405e-05
7.13434e-05
7.26386e-05
7.39109e-05
7.50733e-05
7.62339e-05
7.71663e-05
7.79016e-05
7.77301e-05
7.72018e-05
7.61476e-05
7.48136e-05
7.31949e-05
7.08882e-05
7.02389e-05
7.03296e-05
7.35724e-05
7.87821e-05
9.00469e-05
0.000113013
0.000150168
0.000166291
4.71471e-05
4.76344e-05
4.81283e-05
4.86278e-05
4.91328e-05
4.9643e-05
5.01577e-05
5.06768e-05
5.12003e-05
5.17275e-05
5.22575e-05
5.27897e-05
5.33236e-05
5.38586e-05
5.43944e-05
5.49307e-05
5.54673e-05
5.60042e-05
5.65414e-05
5.70791e-05
5.76176e-05
5.81575e-05
5.86994e-05
5.92444e-05
5.97934e-05
6.0348e-05
6.09098e-05
6.14807e-05
6.20627e-05
6.26583e-05
6.32699e-05
6.39002e-05
6.4552e-05
6.52279e-05
6.59307e-05
6.66627e-05
6.74262e-05
6.82228e-05
6.90536e-05
6.99189e-05
7.0817e-05
7.17475e-05
7.27076e-05
7.36921e-05
7.46905e-05
7.56947e-05
7.67027e-05
7.77014e-05
7.8632e-05
7.95658e-05
8.03878e-05
8.10343e-05
8.11099e-05
8.07681e-05
7.99917e-05
7.88299e-05
7.7448e-05
7.56817e-05
7.36246e-05
7.09798e-05
6.97751e-05
7.13172e-05
7.3187e-05
7.84068e-05
8.93828e-05
0.000107279
0.000132263
0.000148842
0.000140148
6.42539e-05
6.46534e-05
6.50499e-05
6.54427e-05
6.58322e-05
6.62184e-05
6.6601e-05
6.698e-05
6.73552e-05
6.77264e-05
6.80936e-05
6.84564e-05
6.88148e-05
6.91687e-05
6.9518e-05
6.98629e-05
7.02036e-05
7.054e-05
7.08725e-05
7.12014e-05
7.15276e-05
7.18516e-05
7.21748e-05
7.24981e-05
7.28233e-05
7.3152e-05
7.34863e-05
7.38282e-05
7.41801e-05
7.45447e-05
7.49245e-05
7.53223e-05
7.57407e-05
7.61824e-05
7.66494e-05
7.71438e-05
7.76671e-05
7.82201e-05
7.8802e-05
7.94116e-05
8.00428e-05
8.07003e-05
8.13752e-05
8.20522e-05
8.27082e-05
8.33544e-05
8.40031e-05
8.45692e-05
8.49847e-05
8.49327e-05
8.46118e-05
8.39027e-05
8.28125e-05
8.1533e-05
8.00216e-05
7.80637e-05
7.57028e-05
7.30631e-05
7.03649e-05
7.00325e-05
7.06657e-05
7.38663e-05
7.83398e-05
8.75764e-05
9.97637e-05
0.000115273
0.000125764
0.000124412
0.000107278
8.36948e-05
8.38954e-05
8.4085e-05
8.42635e-05
8.44318e-05
8.45902e-05
8.47389e-05
8.48782e-05
8.50085e-05
8.51297e-05
8.5242e-05
8.53453e-05
8.54399e-05
8.55257e-05
8.5605e-05
8.56723e-05
8.57361e-05
8.57891e-05
8.58405e-05
8.58835e-05
8.5927e-05
8.59642e-05
8.60037e-05
8.60404e-05
8.60815e-05
8.61256e-05
8.61755e-05
8.62332e-05
8.63012e-05
8.63822e-05
8.64782e-05
8.65923e-05
8.6726e-05
8.68818e-05
8.70607e-05
8.72648e-05
8.74947e-05
8.7749e-05
8.80241e-05
8.83147e-05
8.86075e-05
8.89453e-05
8.92644e-05
8.95209e-05
8.97046e-05
8.96568e-05
8.94076e-05
8.88863e-05
8.7996e-05
8.68914e-05
8.56359e-05
8.41383e-05
8.23229e-05
8.0048e-05
7.73707e-05
7.43617e-05
7.13798e-05
6.87331e-05
6.85537e-05
6.95659e-05
7.169e-05
7.60859e-05
8.29656e-05
9.0663e-05
9.77786e-05
0.000102086
0.000103834
9.66763e-05
7.79347e-05
0.000103766
0.000103706
0.000103629
0.000103534
0.000103423
0.000103298
0.000103159
0.000103008
0.000102846
0.000102672
0.000102483
0.000102282
0.000102068
0.000101838
0.000101625
0.000101329
0.000101115
0.000100802
0.000100576
0.000100254
0.000100015
9.96925e-05
9.94434e-05
9.9131e-05
9.88721e-05
9.85906e-05
9.83202e-05
9.80565e-05
9.78038e-05
9.75642e-05
9.73355e-05
9.71271e-05
9.69316e-05
9.67575e-05
9.66009e-05
9.64719e-05
9.63629e-05
9.62649e-05
9.61698e-05
9.6061e-05
9.58775e-05
9.55578e-05
9.50301e-05
9.43161e-05
9.34125e-05
9.2318e-05
9.11225e-05
8.97665e-05
8.81817e-05
8.62764e-05
8.39752e-05
8.12075e-05
7.81105e-05
7.46454e-05
7.12829e-05
6.82414e-05
6.58658e-05
6.61419e-05
6.64609e-05
6.87388e-05
7.23827e-05
7.47629e-05
7.38376e-05
7.4449e-05
7.72943e-05
8.13615e-05
8.13648e-05
7.23872e-05
5.43761e-05
0.000122622
0.000122282
0.000121921
0.00012154
0.000121139
0.00012072
0.000120283
0.00011983
0.00011936
0.000118874
0.000118373
0.000117857
0.000117327
0.000116784
0.000116231
0.00011566
0.000115084
0.000114495
0.000113904
0.000113302
0.0001127
0.000112088
0.000111477
0.00011086
0.000110246
0.000109636
0.000109033
0.000108437
0.00010785
0.000107273
0.000106706
0.00010615
0.000105587
0.000105011
0.000104412
0.000103761
0.000103047
0.000102257
0.000101373
0.00010037
9.92506e-05
9.80707e-05
9.67841e-05
9.53526e-05
9.37333e-05
9.18838e-05
8.96903e-05
8.71384e-05
8.41609e-05
8.07977e-05
7.71065e-05
7.31947e-05
6.94774e-05
6.59092e-05
6.32427e-05
6.11039e-05
6.06595e-05
6.12566e-05
6.20066e-05
6.08873e-05
5.6134e-05
5.16113e-05
5.22918e-05
5.66641e-05
6.22264e-05
6.47958e-05
6.30507e-05
5.36548e-05
3.80406e-05
0.000137703
0.000137139
0.000136546
0.000135926
0.000135282
0.000134615
0.000133926
0.000133217
0.000132487
0.000131737
0.000130969
0.000130184
0.000129385
0.000128571
0.000127743
0.000126901
0.000126045
0.000125176
0.000124296
0.000123403
0.000122499
0.000121584
0.00012066
0.000119725
0.000118784
0.00011783
0.000116861
0.000115874
0.000114863
0.000113823
0.000112748
0.000111624
0.00011047
0.000109282
0.00010805
0.000106759
0.000105393
0.000103934
0.000102363
0.000100662
9.87889e-05
9.66862e-05
9.4318e-05
9.16479e-05
8.86265e-05
8.5259e-05
8.14988e-05
7.74833e-05
7.3219e-05
6.89679e-05
6.4806e-05
6.10761e-05
5.77161e-05
5.47732e-05
5.23433e-05
5.11667e-05
4.99559e-05
4.67341e-05
3.75138e-05
3.26532e-05
3.3956e-05
3.69043e-05
4.1552e-05
4.69034e-05
5.08369e-05
5.19645e-05
4.9164e-05
4.06316e-05
2.80521e-05
0.000145853
0.000145113
0.000144351
0.000143566
0.00014276
0.000141931
0.000141079
0.000140204
0.000139306
0.000138385
0.000137441
0.000136474
0.000135484
0.000134472
0.000133438
0.000132382
0.000131304
0.000130205
0.000129084
0.000127941
0.000126775
0.000125587
0.000124379
0.000123138
0.000121859
0.000120542
0.000119184
0.000117783
0.000116333
0.000114826
0.000113252
0.000111603
0.000109851
0.00010798
0.000105972
0.000103804
0.00010146
9.89112e-05
9.61523e-05
9.31485e-05
8.98759e-05
8.63102e-05
8.24533e-05
7.83173e-05
7.39663e-05
6.94867e-05
6.49731e-05
6.0544e-05
5.63108e-05
5.20057e-05
4.80811e-05
4.42184e-05
4.0685e-05
3.68959e-05
3.41896e-05
2.85979e-05
1.81592e-05
1.63882e-05
1.7988e-05
2.12931e-05
2.58656e-05
3.0707e-05
3.53897e-05
3.9576e-05
4.20067e-05
4.25241e-05
3.97902e-05
3.30269e-05
2.38062e-05
0.000140274
0.000139525
0.000138741
0.000137924
0.000137075
0.000136197
0.000135289
0.000134353
0.000133387
0.000132392
0.000131368
0.000130314
0.000129231
0.000128116
0.00012697
0.000125792
0.000124581
0.000123336
0.000122056
0.000120744
0.000119394
0.000118014
0.000116565
0.000115053
0.000113462
0.000111772
0.000109969
0.000108037
0.000105958
0.000103715
0.000101292
9.86757e-05
9.58616e-05
9.28499e-05
8.96598e-05
8.63047e-05
8.28533e-05
7.93116e-05
7.58019e-05
7.20738e-05
6.81752e-05
6.41102e-05
5.99495e-05
5.56601e-05
5.13732e-05
4.70025e-05
4.25444e-05
3.76689e-05
3.1925e-05
2.68163e-05
2.23194e-05
1.80136e-05
1.16572e-05
8.26259e-06
6.91096e-06
6.13774e-06
5.92542e-06
8.00621e-06
1.18927e-05
1.64804e-05
2.12148e-05
2.57631e-05
3.0013e-05
3.37539e-05
3.62325e-05
3.70803e-05
3.57999e-05
3.12362e-05
2.44325e-05
0.000109309
0.000108505
0.000107677
0.000106826
0.000105951
0.00010505
0.000104122
0.000103166
0.000102181
0.000101166
0.000100121
9.9046e-05
9.79374e-05
9.67977e-05
9.56217e-05
9.44132e-05
9.31674e-05
9.18834e-05
9.05671e-05
8.92006e-05
8.77871e-05
8.62946e-05
8.4757e-05
8.31714e-05
8.1528e-05
7.98481e-05
7.81447e-05
7.6408e-05
7.46373e-05
7.28331e-05
7.09935e-05
6.9111e-05
6.71737e-05
6.51587e-05
6.30259e-05
6.07361e-05
5.8183e-05
5.53477e-05
5.20031e-05
4.83712e-05
4.4344e-05
3.98663e-05
3.48552e-05
2.95353e-05
2.38213e-05
1.83144e-05
1.24401e-05
8.07957e-06
5.16298e-06
3.78729e-06
3.09668e-06
2.18835e-06
1.55657e-06
1.28779e-06
1.13161e-06
1.14418e-06
1.63385e-06
2.63361e-06
4.48618e-06
7.56737e-06
1.16756e-05
1.61653e-05
2.02149e-05
2.39443e-05
2.68657e-05
2.83568e-05
2.84855e-05
2.65173e-05
2.26623e-05
6.38505e-05
6.45616e-05
6.52653e-05
6.59596e-05
6.66419e-05
6.73102e-05
6.79635e-05
6.85993e-05
6.92166e-05
6.98119e-05
7.03841e-05
7.0929e-05
7.14451e-05
7.19288e-05
7.23725e-05
7.27913e-05
7.31167e-05
7.35253e-05
7.35679e-05
7.35804e-05
7.37558e-05
7.3431e-05
7.3248e-05
7.3255e-05
7.23582e-05
7.18782e-05
7.18819e-05
7.13886e-05
7.05558e-05
6.94084e-05
6.7938e-05
6.61158e-05
6.39006e-05
6.12396e-05
5.80712e-05
5.43253e-05
4.99206e-05
4.47857e-05
3.8827e-05
3.20576e-05
2.43915e-05
1.65225e-05
9.26892e-06
3.88069e-06
1.41494e-06
1.16649e-06
1.20848e-06
1.17175e-06
1.04468e-06
9.29532e-07
7.13854e-07
5.09379e-07
4.05969e-07
3.47931e-07
3.22859e-07
3.56261e-07
4.88862e-07
7.2554e-07
1.08646e-06
1.55856e-06
2.09918e-06
2.69005e-06
3.43532e-06
4.21309e-06
4.95318e-06
5.42405e-06
5.7197e-06
5.91423e-06
5.71698e-06
4.92924e-06
4.92966e-06
4.93264e-06
4.9349e-06
4.93936e-06
4.94347e-06
4.94636e-06
4.94722e-06
4.94473e-06
4.94279e-06
4.94208e-06
4.94636e-06
4.95825e-06
4.96674e-06
4.97065e-06
4.9654e-06
4.97151e-06
4.97668e-06
4.98061e-06
4.98074e-06
4.98033e-06
4.98648e-06
4.98762e-06
4.99078e-06
4.99242e-06
4.99162e-06
4.99946e-06
5.00385e-06
5.00812e-06
5.0125e-06
5.01197e-06
5.02182e-06
5.02913e-06
5.03353e-06
5.0406e-06
5.04042e-06
5.04781e-06
5.05381e-06
5.05827e-06
5.075e-06
5.07163e-06
5.07615e-06
5.07619e-06
5.07875e-06
5.09043e-06
5.093e-06
5.09332e-06
5.09438e-06
5.1009e-06
5.10877e-06
5.11633e-06
5.13069e-06
5.13897e-06
5.14412e-06
5.15014e-06
5.15418e-06
5.15885e-06
5.16367e-06
5.16862e-06
5.02183e-06
5.02414e-06
5.02635e-06
5.02744e-06
5.02839e-06
5.02869e-06
5.0264e-06
5.02605e-06
5.02568e-06
5.02635e-06
5.03294e-06
5.04135e-06
5.0473e-06
5.05009e-06
5.04869e-06
5.05021e-06
5.0575e-06
5.06096e-06
5.06236e-06
5.06308e-06
5.06482e-06
5.06859e-06
5.07051e-06
5.07449e-06
5.07522e-06
5.0758e-06
5.08374e-06
5.08964e-06
5.09166e-06
5.09613e-06
5.09912e-06
5.10772e-06
5.11531e-06
5.11975e-06
5.12984e-06
5.13192e-06
5.13788e-06
5.14573e-06
5.15034e-06
5.16733e-06
5.17103e-06
5.17632e-06
5.17851e-06
5.17905e-06
5.18644e-06
5.19451e-06
5.19819e-06
5.20001e-06
5.20465e-06
5.21188e-06
5.2187e-06
5.22927e-06
5.2402e-06
5.2478e-06
5.2553e-06
5.26103e-06
5.26593e-06
5.27118e-06
5.27573e-06
5.12837e-06
5.12832e-06
5.12875e-06
5.12974e-06
5.1295e-06
5.12727e-06
5.12675e-06
5.1262e-06
5.12931e-06
5.1359e-06
5.1423e-06
5.14642e-06
5.14865e-06
5.14929e-06
5.14909e-06
5.1538e-06
5.15809e-06
5.15984e-06
5.1604e-06
5.16238e-06
5.16551e-06
5.16793e-06
5.17048e-06
5.17433e-06
5.17488e-06
5.17717e-06
5.18495e-06
5.19206e-06
5.19292e-06
5.19762e-06
5.20346e-06
5.21129e-06
5.21928e-06
5.22437e-06
5.23602e-06
5.241e-06
5.24665e-06
5.2554e-06
5.26028e-06
5.27696e-06
5.28641e-06
5.29417e-06
5.29939e-06
5.30236e-06
5.30628e-06
5.31439e-06
5.32133e-06
5.32578e-06
5.33016e-06
5.33641e-06
5.34337e-06
5.35174e-06
5.36215e-06
5.37146e-06
5.38012e-06
5.38777e-06
5.39416e-06
5.40053e-06
5.4057e-06
5.2533e-06
5.25286e-06
5.25192e-06
5.2514e-06
5.25088e-06
5.24894e-06
5.25036e-06
5.2533e-06
5.25893e-06
5.26326e-06
5.26592e-06
5.26746e-06
5.26794e-06
5.26799e-06
5.27113e-06
5.27454e-06
5.27668e-06
5.27739e-06
5.27847e-06
5.2815e-06
5.28508e-06
5.28701e-06
5.28988e-06
5.29324e-06
5.29405e-06
5.29807e-06
5.30577e-06
5.31352e-06
5.31416e-06
5.31936e-06
5.32725e-06
5.33485e-06
5.34356e-06
5.34976e-06
5.36246e-06
5.37041e-06
5.37693e-06
5.38646e-06
5.39185e-06
5.40742e-06
5.42073e-06
5.43182e-06
5.44048e-06
5.44738e-06
5.45203e-06
5.45899e-06
5.46701e-06
5.474e-06
5.47996e-06
5.4863e-06
5.49339e-06
5.50115e-06
5.5103e-06
5.51983e-06
5.52918e-06
5.53819e-06
5.54617e-06
5.55417e-06
5.56058e-06
5.39618e-06
5.39521e-06
5.39647e-06
5.39819e-06
5.39841e-06
5.39858e-06
5.4035e-06
5.40727e-06
5.40988e-06
5.41197e-06
5.41283e-06
5.41267e-06
5.4124e-06
5.4132e-06
5.41531e-06
5.41718e-06
5.41796e-06
5.41855e-06
5.42042e-06
5.42393e-06
5.42733e-06
5.42926e-06
5.43222e-06
5.43515e-06
5.43666e-06
5.44188e-06
5.44975e-06
5.4579e-06
5.45897e-06
5.46485e-06
5.47431e-06
5.48222e-06
5.49183e-06
5.49933e-06
5.51295e-06
5.52378e-06
5.53208e-06
5.54289e-06
5.54942e-06
5.56378e-06
5.57932e-06
5.59362e-06
5.60568e-06
5.61656e-06
5.62467e-06
5.63256e-06
5.64123e-06
5.64991e-06
5.65794e-06
5.66564e-06
5.67356e-06
5.68176e-06
5.69062e-06
5.70003e-06
5.70961e-06
5.71929e-06
5.72831e-06
5.73774e-06
5.74546e-06
5.58284e-06
5.58307e-06
5.58376e-06
5.58422e-06
5.58461e-06
5.58551e-06
5.58701e-06
5.58773e-06
5.58742e-06
5.58461e-06
5.58278e-06
5.58358e-06
5.58565e-06
5.58623e-06
5.5869e-06
5.58742e-06
5.58765e-06
5.58859e-06
5.59101e-06
5.59452e-06
5.59757e-06
5.59963e-06
5.60253e-06
5.60526e-06
5.60773e-06
5.61381e-06
5.62197e-06
5.63051e-06
5.6325e-06
5.63923e-06
5.65007e-06
5.65874e-06
5.66938e-06
5.67837e-06
5.69286e-06
5.70644e-06
5.71719e-06
5.72991e-06
5.73845e-06
5.75216e-06
5.76885e-06
5.78586e-06
5.80118e-06
5.81572e-06
5.82813e-06
5.8391e-06
5.84973e-06
5.86027e-06
5.87046e-06
5.88022e-06
5.88981e-06
5.89937e-06
5.90909e-06
5.9191e-06
5.9292e-06
5.93955e-06
5.94939e-06
5.96e-06
5.96881e-06
5.80185e-06
5.79688e-06
5.79608e-06
5.79654e-06
5.79882e-06
5.79884e-06
5.7956e-06
5.79401e-06
5.79302e-06
5.79208e-06
5.79453e-06
5.79418e-06
5.79191e-06
5.79177e-06
5.79279e-06
5.79251e-06
5.79248e-06
5.79375e-06
5.79638e-06
5.79961e-06
5.8023e-06
5.80444e-06
5.80724e-06
5.81004e-06
5.81352e-06
5.8204e-06
5.82902e-06
5.83799e-06
5.84127e-06
5.84907e-06
5.86123e-06
5.87111e-06
5.88294e-06
5.89366e-06
5.90919e-06
5.92537e-06
5.93904e-06
5.95426e-06
5.96572e-06
5.97984e-06
5.99727e-06
6.01642e-06
6.03487e-06
6.05283e-06
6.06947e-06
6.0846e-06
6.09869e-06
6.11215e-06
6.12511e-06
6.13757e-06
6.14963e-06
6.16141e-06
6.173e-06
6.18457e-06
6.19602e-06
6.20759e-06
6.2186e-06
6.23055e-06
6.24049e-06
6.05337e-06
6.05072e-06
6.05247e-06
6.05487e-06
6.05322e-06
6.05576e-06
6.05007e-06
6.04712e-06
6.04702e-06
6.04743e-06
6.04179e-06
6.04051e-06
6.04058e-06
6.04251e-06
6.03992e-06
6.03931e-06
6.0405e-06
6.04198e-06
6.04446e-06
6.04723e-06
6.04959e-06
6.05175e-06
6.05449e-06
6.05762e-06
6.06215e-06
6.06982e-06
6.07909e-06
6.08861e-06
6.09351e-06
6.10266e-06
6.11618e-06
6.12769e-06
6.14103e-06
6.15378e-06