/*--------------------------------*- C++ -*----------------------------------*\
| =========                 |                                                 |
| \\      /  F ield         | OpenFOAM: The Open Source CFD Toolbox           |
|  \\    /   O peration     | Version:  2312                                  |
|   \\  /    A nd           | Website:  www.openfoam.com                      |
|    \\/     M anipulation  |                                                 |
\*---------------------------------------------------------------------------*/
FoamFile
{
    version     2.0;
    format      ascii;
    arch        "LSB;label=32;scalar=64";
    class       volScalarField;
    location    "1600";
    object      nut;
}
// * * * * * * * * * * * * * * * * * * * * * * * * * * * * * * * * * * * * * //

dimensions      [0 2 -1 0 0 0 0];

internalField   nonuniform List<scalar> 
76025
(
0.000173391
0.000173525
0.000173665
0.000173798
0.000173897
0.000174081
0.000174186
0.000174351
0.000174482
0.000174648
0.000174805
0.00017498
0.000175176
0.000175366
0.000175582
0.000175795
0.000176007
0.00017625
0.000176452
0.000176693
0.000176934
0.000177197
0.000177429
0.000177696
0.000177951
0.000178231
0.000178536
0.000178818
0.000179159
0.00017948
0.000179793
0.000180188
0.000180597
0.000181058
0.000181538
0.000182052
0.000182646
0.000183283
0.000184013
0.000184799
0.000185661
0.000186667
0.000187788
0.000189038
0.000190422
0.000191993
0.000193719
0.000195658
0.000197849
0.000200205
0.000202911
0.000205848
0.000209156
0.000212615
0.000216819
0.000221143
0.000226269
0.000231991
0.000238644
0.00024647
0.000255433
0.000265872
0.000277861
0.000291738
0.00030853
0.000326227
0.000345174
0.000365728
0.000384134
0.000175198
0.000175346
0.000175495
0.000175656
0.000175786
0.000175951
0.000176095
0.000176256
0.000176414
0.000176579
0.000176745
0.000176915
0.000177096
0.000177284
0.000177494
0.000177709
0.00017794
0.000178179
0.000178427
0.000178679
0.000178943
0.000179224
0.00017951
0.000179812
0.000180129
0.000180452
0.000180801
0.000181162
0.000181546
0.000181963
0.000182405
0.000182866
0.00018338
0.000183926
0.00018453
0.00018519
0.000185911
0.00018672
0.000187607
0.000188585
0.000189671
0.000190864
0.000192204
0.00019367
0.000195306
0.000197107
0.000199109
0.000201322
0.000203753
0.000206464
0.000209429
0.000212748
0.000216389
0.000220518
0.000225089
0.000230313
0.000236254
0.000243103
0.000251058
0.000260281
0.00027101
0.000283302
0.000297326
0.000312994
0.00033017
0.000348779
0.000368572
0.000388658
0.000407877
0.000177348
0.000177502
0.000177657
0.000177828
0.00017799
0.000178163
0.000178335
0.000178512
0.000178694
0.000178879
0.000179067
0.000179256
0.000179449
0.000179643
0.000179855
0.000180077
0.00018032
0.000180578
0.000180854
0.000181143
0.000181447
0.000181768
0.000182106
0.000182461
0.000182839
0.000183234
0.000183653
0.000184097
0.000184571
0.000185076
0.000185623
0.000186205
0.000186836
0.000187517
0.000188257
0.000189063
0.000189941
0.000190905
0.000191959
0.000193114
0.000194382
0.000195777
0.000197315
0.000199006
0.000200868
0.000202918
0.000205181
0.000207668
0.000210414
0.000213441
0.000216797
0.00022052
0.00022469
0.000229368
0.000234673
0.000240735
0.000247705
0.00025576
0.000265062
0.000275785
0.000288064
0.00030195
0.000317468
0.000334494
0.000352963
0.000372235
0.00039172
0.000410395
0.000425949
0.000179874
0.000180039
0.000180205
0.00018038
0.000180558
0.000180744
0.000180936
0.000181135
0.00018134
0.000181551
0.000181767
0.000181987
0.000182212
0.000182439
0.000182676
0.000182925
0.000183192
0.000183478
0.000183785
0.000184113
0.000184463
0.000184835
0.00018523
0.000185647
0.000186091
0.000186561
0.000187061
0.000187594
0.000188162
0.00018877
0.000189422
0.000190122
0.000190875
0.000191687
0.000192564
0.000193513
0.000194543
0.000195664
0.000196887
0.000198221
0.000199681
0.000201282
0.000203039
0.000204969
0.000207088
0.000209418
0.000211981
0.000214803
0.000217918
0.000221367
0.000225204
0.000229499
0.000234337
0.000239828
0.000246101
0.000253304
0.000261598
0.000271141
0.000282073
0.000294518
0.000308509
0.00032405
0.000341018
0.000359122
0.000378103
0.000396812
0.000414817
0.000430067
0.000441068
0.000182842
0.000183025
0.000183211
0.000183399
0.000183593
0.000183794
0.000184003
0.000184221
0.000184449
0.000184686
0.000184932
0.000185187
0.000185449
0.000185719
0.000185998
0.00018629
0.000186599
0.000186928
0.000187279
0.000187655
0.000188057
0.000188487
0.000188944
0.000189431
0.000189949
0.000190501
0.000191088
0.000191714
0.000192383
0.000193097
0.000193862
0.000194681
0.00019556
0.000196507
0.000197527
0.00019863
0.000199824
0.00020112
0.000202531
0.00020407
0.000205749
0.000207587
0.0002096
0.000211807
0.000214228
0.000216889
0.00021982
0.000223058
0.000226649
0.000230652
0.000235143
0.000240211
0.000245967
0.000252537
0.000260064
0.000268692
0.000278565
0.000289799
0.000302476
0.000316637
0.000332209
0.000349105
0.000366976
0.000385395
0.000403728
0.00042049
0.000435335
0.000445425
0.000450219
0.000186356
0.000186559
0.000186767
0.000186979
0.000187197
0.000187421
0.000187654
0.000187896
0.00018815
0.000188415
0.000188693
0.000188983
0.000189285
0.000189599
0.000189926
0.000190268
0.000190628
0.00019101
0.000191416
0.000191849
0.000192311
0.000192805
0.000193331
0.000193892
0.000194491
0.000195129
0.000195809
0.000196534
0.000197308
0.000198134
0.000199018
0.000199963
0.000200978
0.000202069
0.000203245
0.000204516
0.000205891
0.000207385
0.000209009
0.00021078
0.000212712
0.000214824
0.000217139
0.000219679
0.000222472
0.000225553
0.000228965
0.000232758
0.000236999
0.000241765
0.000247152
0.000253268
0.000260238
0.00026819
0.000277258
0.000287556
0.000299183
0.000312186
0.000326565
0.000342255
0.000359041
0.000376697
0.000394567
0.000412097
0.000428192
0.000441306
0.000451269
0.000454463
0.000452269
0.00019053
0.000190754
0.000190987
0.000191226
0.000191473
0.000191729
0.000191995
0.000192271
0.000192558
0.00019286
0.000193175
0.000193506
0.000193852
0.000194214
0.000194593
0.00019499
0.000195408
0.000195849
0.000196316
0.000196814
0.000197343
0.000197908
0.000198509
0.000199151
0.000199836
0.000200567
0.000201347
0.000202179
0.000203067
0.000204016
0.000205031
0.000206118
0.000207285
0.000208542
0.000209897
0.000211362
0.00021295
0.000214674
0.000216551
0.000218599
0.000220838
0.000223292
0.000225989
0.000228961
0.000232248
0.000235898
0.000239969
0.000244531
0.000249666
0.000255471
0.000262053
0.000269527
0.00027801
0.00028761
0.000298425
0.000310507
0.000323891
0.000338519
0.000354291
0.000370992
0.000388223
0.000405572
0.00042204
0.000437069
0.00044904
0.000456906
0.000460389
0.000455552
0.00044625
0.000195491
0.00019574
0.000196001
0.000196271
0.000196552
0.000196846
0.000197151
0.000197469
0.0001978
0.000198147
0.00019851
0.00019889
0.000199289
0.000199707
0.000200145
0.000200605
0.000201089
0.000201599
0.000202139
0.00020271
0.000203318
0.000203963
0.000204651
0.000205386
0.000206169
0.000207005
0.000207898
0.000208851
0.00020987
0.00021096
0.000212128
0.000213382
0.00021473
0.000216184
0.000217755
0.000219456
0.000221303
0.000223313
0.000225508
0.000227909
0.000230546
0.00023345
0.000236661
0.000240222
0.000244189
0.000248626
0.000253606
0.000259214
0.000265546
0.000272702
0.000280784
0.00028989
0.000300107
0.000311489
0.000324073
0.000337826
0.000352688
0.000368474
0.000384948
0.000401699
0.000418132
0.000433641
0.000446965
0.000457711
0.000463772
0.000465202
0.000460947
0.000447776
0.000432029
0.000201384
0.000201668
0.000201964
0.000202272
0.000202594
0.000202931
0.000203282
0.00020365
0.000204033
0.000204435
0.000204855
0.000205295
0.000205757
0.000206242
0.00020675
0.000207285
0.000207847
0.00020844
0.000209065
0.000209727
0.000210428
0.000211174
0.000211968
0.000212814
0.000213716
0.00021468
0.000215708
0.000216809
0.000217986
0.000219249
0.000220604
0.000222063
0.000223636
0.000225337
0.00022718
0.000229183
0.000231366
0.000233752
0.000236368
0.000239248
0.000242428
0.000245955
0.000249881
0.000254265
0.000259174
0.000264686
0.000270883
0.000277855
0.000285689
0.000294469
0.00030427
0.000315141
0.000327111
0.000340162
0.000354242
0.00036921
0.000384887
0.000400926
0.000416938
0.000432303
0.000446284
0.000458146
0.000466542
0.000471403
0.000470211
0.000464608
0.000451763
0.000431074
0.000409245
0.000208385
0.000208717
0.000209062
0.00020942
0.000209793
0.000210184
0.000210592
0.000211019
0.000211465
0.000211932
0.000212421
0.000212933
0.000213471
0.000214035
0.000214628
0.000215252
0.000215909
0.000216601
0.000217331
0.000218103
0.000218923
0.000219794
0.000220721
0.000221708
0.000222761
0.000223886
0.000225088
0.000226376
0.000227758
0.000229243
0.000230842
0.000232569
0.000234439
0.000236469
0.000238678
0.000241092
0.000243737
0.000246645
0.000249854
0.000253408
0.000257358
0.00026176
0.000266684
0.000272193
0.000278361
0.000285265
0.00029298
0.000301574
0.000311108
0.00032162
0.000333131
0.000345623
0.000359044
0.000373284
0.000388182
0.000403468
0.000418824
0.00043374
0.000447692
0.000459913
0.000469638
0.000476123
0.000478126
0.000475968
0.000466851
0.000454141
0.000432404
0.000405921
0.000376836
0.000216727
0.000217122
0.000217532
0.000217955
0.000218396
0.000218857
0.000219337
0.000219839
0.000220364
0.000220913
0.000221488
0.00022209
0.000222722
0.000223385
0.000224082
0.000224816
0.000225589
0.000226405
0.000227267
0.000228182
0.000229153
0.000230185
0.000231284
0.000232455
0.000233707
0.000235046
0.000236481
0.000238022
0.000239682
0.000241472
0.000243409
0.00024551
0.000247798
0.000250294
0.000253028
0.000256032
0.000259343
0.000263003
0.000267061
0.00027157
0.000276589
0.000282183
0.000288419
0.000295362
0.000303067
0.00031159
0.000320974
0.000331244
0.000342407
0.000354442
0.000367294
0.000380864
0.000395005
0.000409498
0.000424063
0.000438303
0.000451772
0.000463848
0.000473945
0.000481269
0.000485149
0.000484937
0.000479653
0.000469953
0.000452937
0.000433381
0.000403147
0.000372695
0.000335181
0.000226731
0.000227207
0.000227701
0.000228211
0.000228741
0.000229294
0.000229869
0.00023047
0.000231097
0.000231753
0.00023244
0.000233159
0.000233913
0.000234706
0.00023554
0.000236418
0.000237344
0.000238325
0.000239365
0.000240469
0.000241643
0.000242893
0.000244228
0.000245655
0.000247183
0.000248825
0.000250592
0.000252498
0.00025456
0.000256796
0.000259229
0.000261883
0.000264787
0.000267972
0.000271476
0.000275339
0.000279604
0.000284322
0.000289543
0.000295321
0.000301712
0.000308767
0.000316536
0.000325065
0.000334375
0.000344474
0.000355352
0.000366978
0.000379293
0.000392203
0.000405569
0.000419205
0.000432862
0.000446219
0.000458892
0.000470394
0.000480209
0.0004877
0.000492309
0.00049334
0.000490289
0.000482674
0.000469864
0.000452702
0.000428361
0.000402339
0.000364744
0.000331984
0.000287363
0.000238853
0.000239435
0.000240039
0.000240663
0.000241312
0.000241987
0.000242691
0.000243425
0.000244192
0.000244994
0.000245834
0.000246715
0.00024764
0.000248613
0.000249638
0.000250723
0.000251871
0.000253089
0.000254384
0.000255762
0.000257232
0.000258804
0.000260487
0.000262295
0.00026424
0.000266338
0.000268608
0.000271068
0.000273741
0.000276652
0.000279829
0.000283305
0.000287112
0.000291288
0.000295871
0.000300904
0.000306427
0.000312484
0.000319113
0.000326352
0.000334232
0.000342778
0.000352002
0.000361906
0.000372469
0.000383669
0.000395404
0.000407592
0.000420102
0.000432764
0.000445363
0.000457628
0.000469229
0.000479779
0.000488832
0.000495891
0.000500435
0.000501925
0.000499874
0.00049381
0.00048336
0.000468288
0.000448335
0.000424274
0.000393354
0.000361376
0.000318482
0.000285041
0.000238281
0.000253759
0.000254484
0.000255238
0.00025602
0.000256834
0.000257684
0.000258571
0.000259497
0.000260467
0.000261483
0.00026255
0.000263671
0.000264854
0.000266105
0.000267429
0.000268833
0.000270324
0.00027191
0.000273602
0.00027541
0.000277346
0.000279423
0.000281656
0.000284061
0.000286657
0.000289464
0.000292503
0.0002958
0.000299379
0.000303268
0.000307498
0.000312099
0.0003171
0.000322533
0.000328428
0.000334811
0.000341707
0.000349137
0.000357113
0.000365643
0.000374722
0.000384336
0.000394456
0.000405036
0.00041601
0.000427291
0.000438755
0.000450266
0.000461598
0.000472528
0.000482779
0.00049203
0.000499908
0.000506015
0.000509898
0.000511136
0.000509234
0.000503869
0.000494591
0.000481294
0.00046357
0.000441603
0.000415404
0.000385126
0.000347907
0.000311928
0.000266818
0.000237657
0.000192283
0.0002725
0.000273436
0.000274414
0.000275434
0.000276501
0.000277618
0.00027879
0.000280019
0.000281312
0.000282675
0.000284113
0.000285634
0.000287243
0.000288949
0.000290759
0.000292685
0.000294735
0.000296922
0.000299257
0.000301756
0.000304431
0.000307299
0.000310378
0.000313684
0.000317238
0.000321058
0.000325165
0.00032958
0.000334323
0.000339415
0.000344876
0.000350722
0.000356969
0.000363629
0.000370711
0.000378219
0.000386151
0.000394499
0.000403246
0.000412367
0.000421823
0.000431564
0.000441522
0.000451611
0.000461724
0.000471728
0.000481459
0.000490726
0.000499296
0.000506911
0.000513242
0.000517952
0.000520667
0.000521044
0.000518656
0.000513237
0.000504296
0.000491869
0.000475399
0.00045537
0.000431005
0.000403244
0.000371438
0.000332273
0.000292259
0.000255309
0.000213676
0.000188011
0.000150653
0.000296913
0.000298197
0.000299548
0.000300966
0.000302461
0.000304038
0.000305701
0.000307455
0.000309306
0.000311261
0.000313328
0.000315514
0.000317829
0.00032028
0.000322878
0.000325634
0.000328557
0.000331659
0.000334951
0.000338445
0.000342154
0.000346088
0.00035026
0.000354681
0.000359362
0.000364314
0.000369546
0.000375065
0.000380879
0.000386992
0.000393407
0.000400121
0.000407132
0.000414431
0.000422006
0.00042984
0.000437908
0.000446178
0.00045461
0.000463152
0.000471739
0.000480292
0.000488715
0.000496891
0.000504684
0.00051193
0.00051844
0.000523997
0.000528357
0.00053124
0.00053236
0.000531373
0.000527945
0.00052183
0.000512647
0.000500345
0.000484355
0.000465296
0.000442221
0.000416515
0.000386552
0.000350485
0.000311867
0.000271013
0.000232281
0.000199932
0.000164894
0.000142378
0.000117476
0.000330563
0.000332477
0.000334499
0.000336625
0.000338865
0.000341223
0.000343703
0.00034631
0.00034905
0.000351926
0.000354945
0.000358111
0.00036143
0.000364907
0.000368547
0.000372355
0.000376334
0.00038049
0.000384826
0.000389344
0.000394047
0.000398937
0.000404015
0.00040928
0.000414732
0.000420368
0.000426186
0.000432179
0.000438342
0.000444666
0.000451139
0.000457748
0.000464476
0.000471301
0.000478197
0.000485131
0.000492065
0.000498951
0.000505729
0.000512332
0.000518674
0.000524658
0.000530168
0.000535068
0.000539204
0.000542399
0.000544451
0.000545145
0.000544235
0.000541453
0.000536555
0.000529208
0.000519219
0.000506426
0.000490542
0.000471705
0.000449216
0.000424531
0.000395974
0.000362279
0.000325098
0.000285527
0.000246438
0.000209939
0.000175932
0.000149034
0.000122863
0.000105063
0.000110392
0.000380269
0.000383125
0.000386107
0.00038921
0.000392435
0.000395784
0.000399254
0.000402846
0.000406557
0.000410386
0.000414333
0.000418394
0.000422568
0.000426853
0.000431244
0.00043574
0.000440336
0.000445028
0.000449812
0.000454682
0.000459633
0.000464659
0.000469753
0.000474908
0.000480116
0.000485367
0.000490651
0.000495957
0.000501271
0.000506579
0.000511862
0.0005171
0.000522268
0.000527337
0.000532271
0.000537029
0.000541561
0.000545806
0.000549696
0.000553148
0.000556065
0.000558336
0.000559835
0.000560419
0.000559926
0.000558176
0.00055497
0.000550112
0.000543352
0.000534472
0.000523297
0.000509469
0.00049314
0.000474022
0.000452267
0.00042763
0.000399827
0.000367281
0.000331562
0.000293826
0.000256212
0.000217771
0.000183379
0.000154173
0.000126402
0.000107408
8.89943e-05
9.44393e-05
0.000124196
0.000453102
0.00045658
0.000460145
0.000463785
0.000467496
0.000471273
0.000475108
0.000478997
0.000482931
0.000486907
0.000490917
0.000494954
0.000499013
0.000503087
0.000507168
0.000511251
0.000515326
0.000519388
0.000523428
0.000527438
0.00053141
0.000535335
0.000539203
0.000543005
0.000546728
0.000550362
0.000553894
0.000557308
0.000560589
0.000563717
0.000566669
0.000569421
0.000571941
0.000574194
0.000576138
0.000577723
0.00057889
0.000579574
0.000579693
0.000579159
0.000577867
0.0005757
0.000572529
0.00056821
0.00056258
0.000555462
0.000546678
0.000536075
0.000523359
0.000508475
0.000491288
0.000471404
0.000449677
0.000425045
0.000397839
0.00036542
0.000331045
0.000294972
0.000258913
0.000222552
0.000187237
0.00015601
0.000128722
0.000106183
8.70966e-05
7.56557e-05
8.27876e-05
0.000107662
0.000128323
0.000543702
0.000546699
0.000549699
0.000552693
0.000555679
0.000558652
0.000561605
0.000564532
0.00056743
0.000570289
0.000573103
0.000575864
0.000578565
0.000581198
0.000583755
0.000586229
0.000588611
0.000590892
0.000593064
0.000595117
0.000597042
0.000598828
0.000600463
0.000601937
0.000603236
0.000604346
0.000605252
0.000605935
0.000606377
0.000606553
0.000606437
0.000606
0.000605205
0.00060401
0.000602369
0.000600224
0.000597512
0.00059416
0.000590084
0.000585189
0.000579362
0.000572495
0.000564462
0.000555121
0.000544293
0.000531835
0.000517639
0.000501564
0.000483202
0.000463038
0.000440605
0.00041575
0.000387044
0.0003558
0.00032257
0.000288215
0.000254142
0.000219739
0.000187169
0.000153567
0.000127401
0.000104413
8.49171e-05
6.97307e-05
6.65817e-05
7.56441e-05
9.41305e-05
0.00011441
0.000129295
0.000631682
0.000633172
0.000634599
0.000635958
0.000637248
0.000638464
0.000639602
0.000640657
0.000641624
0.000642497
0.00064327
0.000643936
0.000644489
0.000644921
0.000645225
0.000645389
0.000645406
0.000645264
0.000644957
0.000644471
0.000643798
0.000642922
0.000641835
0.00064052
0.000638965
0.000637151
0.000635061
0.000632673
0.000629964
0.000626907
0.000623472
0.000619623
0.000615321
0.000610519
0.000605164
0.000599197
0.00059255
0.000585148
0.000576901
0.000567714
0.00055746
0.000546084
0.000533442
0.000519368
0.000503649
0.000486332
0.000467428
0.000446515
0.000423321
0.000396716
0.00036825
0.000337544
0.0003058
0.000273461
0.000241746
0.00020928
0.000178822
0.000148214
0.000121989
9.87529e-05
8.15295e-05
6.54829e-05
5.68589e-05
5.96885e-05
6.85827e-05
8.23109e-05
0.000101952
0.000117879
0.000119125
0.000694049
0.000693641
0.00069313
0.000692511
0.000691785
0.000690947
0.000689996
0.000688926
0.000687735
0.000686417
0.000684963
0.000683367
0.000681621
0.000679715
0.000677657
0.000675387
0.000672965
0.000670311
0.000667488
0.000664413
0.000661145
0.000657604
0.000653838
0.000649778
0.000645451
0.000640812
0.000635847
0.000630529
0.000624833
0.000618731
0.000612184
0.000605157
0.000597604
0.000589475
0.000580712
0.00057126
0.000561049
0.000549998
0.000538013
0.000524991
0.000510788
0.000495587
0.000478974
0.00046071
0.00044072
0.000418382
0.000393945
0.0003675
0.000339016
0.000309706
0.000280205
0.000250127
0.000220979
0.000191017
0.000163337
0.000135268
0.000112193
8.90448e-05
7.39677e-05
5.8474e-05
4.90269e-05
4.86625e-05
5.36905e-05
6.13678e-05
7.61167e-05
9.46024e-05
0.000107862
0.000111789
0.000100435
0.000713001
0.000710892
0.000708651
0.000706278
0.000703772
0.000701133
0.000698359
0.00069546
0.000692431
0.000689249
0.000685899
0.000682376
0.000678675
0.000674759
0.000670836
0.000666223
0.000662006
0.000656967
0.000652305
0.000646817
0.000641636
0.000635667
0.000629897
0.000623427
0.000616966
0.000610002
0.000602712
0.000595028
0.000586932
0.000578392
0.000569341
0.000559784
0.000549618
0.000538835
0.000527351
0.000515156
0.000502147
0.000488212
0.000473254
0.000457142
0.000439564
0.000420264
0.000398995
0.000376036
0.000351467
0.000325715
0.00029918
0.000272393
0.000245119
0.000218089
0.000191226
0.000164783
0.000140369
0.000116524
9.61973e-05
7.68218e-05
6.26218e-05
5.00833e-05
4.15985e-05
4.02332e-05
4.28837e-05
4.65566e-05
5.50324e-05
7.29899e-05
8.85337e-05
9.88957e-05
0.000103706
9.85383e-05
7.89384e-05
0.000677535
0.000674218
0.000670771
0.000667188
0.000663466
0.000659602
0.000655592
0.000651432
0.000647118
0.000642643
0.000638
0.000633181
0.000628178
0.000622983
0.000617601
0.000611979
0.000606167
0.000600107
0.000593844
0.000587312
0.000580547
0.000573487
0.000566159
0.000558506
0.000550543
0.00054224
0.000533572
0.000524504
0.000515001
0.000505019
0.000494508
0.000483419
0.000471619
0.000459017
0.000445533
0.000430997
0.000415339
0.000398488
0.000380384
0.000360968
0.000340326
0.00031875
0.000296216
0.000272923
0.000248916
0.000224841
0.000200446
0.000176604
0.000153374
0.000131569
0.000110894
9.23075e-05
7.55539e-05
6.15956e-05
4.91404e-05
3.94688e-05
3.34635e-05
3.25046e-05
3.34117e-05
3.4322e-05
3.92863e-05
5.31147e-05
6.86234e-05
8.21215e-05
9.15746e-05
9.51598e-05
9.39852e-05
8.33242e-05
6.17661e-05
0.000581143
0.000577459
0.000573635
0.000569674
0.000565574
0.000561334
0.000556952
0.000552424
0.000547746
0.000542913
0.00053792
0.000532763
0.000527442
0.000521949
0.000516278
0.000510415
0.000504355
0.000498085
0.000491599
0.000484882
0.000477922
0.000470704
0.000463209
0.000455404
0.000447265
0.000438733
0.000429759
0.000420288
0.000410261
0.000399616
0.000388287
0.000376187
0.000363339
0.000349697
0.000335198
0.000319784
0.000303418
0.000286085
0.000267822
0.00024871
0.000228876
0.00020846
0.000187791
0.000167316
0.000147137
0.000127989
0.000109837
9.30232e-05
7.84831e-05
6.4872e-05
5.34482e-05
4.32805e-05
3.47036e-05
2.86118e-05
2.49716e-05
2.43146e-05
2.42486e-05
2.40766e-05
2.48411e-05
3.52782e-05
4.95735e-05
6.36285e-05
7.54286e-05
8.42769e-05
8.79306e-05
8.78876e-05
8.29546e-05
7.04211e-05
5.06494e-05
0.000426053
0.000422828
0.000419515
0.00041611
0.00041261
0.000409011
0.000405308
0.000401497
0.000397574
0.000393532
0.000389369
0.000385077
0.000380653
0.00037609
0.000371383
0.000366524
0.000361506
0.00035632
0.000350958
0.000345411
0.000339657
0.000333679
0.000327449
0.000320831
0.000313777
0.00030625
0.000298213
0.000289622
0.000280433
0.000270601
0.00026008
0.000248842
0.000236827
0.000224031
0.00021047
0.000196189
0.000181297
0.000165925
0.000150304
0.000134669
0.000119325
0.000104545
9.05688e-05
7.76954e-05
6.59404e-05
5.56329e-05
4.66146e-05
3.87163e-05
3.27712e-05
2.59427e-05
2.1524e-05
1.84306e-05
1.69719e-05
1.54256e-05
1.53377e-05
1.4057e-05
1.24126e-05
1.67268e-05
2.36499e-05
3.6025e-05
5.04271e-05
6.32503e-05
7.32421e-05
7.92748e-05
8.09856e-05
8.01167e-05
7.44847e-05
6.2829e-05
4.70131e-05
0.000237132
0.000235193
0.000233198
0.000231144
0.000229034
0.000226864
0.000224632
0.000222335
0.000219971
0.000217537
0.000215028
0.000212442
0.000209773
0.00020702
0.000204173
0.00020123
0.000198186
0.000195026
0.000191762
0.000188371
0.000184778
0.000180987
0.000176752
0.000172086
0.00016695
0.00016131
0.000155152
0.000148465
0.000141253
0.000133533
0.000125342
0.000116745
0.000107827
9.87063e-05
8.95324e-05
8.04491e-05
7.1671e-05
6.33218e-05
5.55966e-05
4.83846e-05
4.17853e-05
3.58525e-05
3.05825e-05
2.59968e-05
2.19732e-05
1.86277e-05
1.55761e-05
1.30537e-05
1.04912e-05
9.05566e-06
7.91554e-06
6.86866e-06
4.88218e-06
4.6289e-06
5.25509e-06
5.88375e-06
6.56293e-06
9.60581e-06
1.56915e-05
2.48345e-05
3.66789e-05
4.79006e-05
5.65791e-05
6.31156e-05
6.66518e-05
6.73781e-05
6.47726e-05
5.73078e-05
4.6512e-05
7.21804e-05
7.14995e-05
7.08049e-05
7.00963e-05
6.9372e-05
6.86306e-05
6.78706e-05
6.70911e-05
6.62907e-05
6.54689e-05
6.46229e-05
6.37545e-05
6.28565e-05
6.19366e-05
6.09809e-05
5.99986e-05
5.89877e-05
5.79103e-05
5.68737e-05
5.56198e-05
5.40895e-05
5.22747e-05
5.02491e-05
4.80506e-05
4.57008e-05
4.32471e-05
4.07354e-05
3.81937e-05
3.5653e-05
3.31427e-05
3.0688e-05
2.83079e-05
2.60187e-05
2.38296e-05
2.1741e-05
1.97532e-05
1.78453e-05
1.60259e-05
1.42419e-05
1.25695e-05
1.09767e-05
9.46043e-06
7.98295e-06
6.59459e-06
5.25822e-06
4.08611e-06
2.88411e-06
1.97305e-06
1.51483e-06
1.45059e-06
1.60634e-06
1.43386e-06
1.10999e-06
9.44091e-07
7.92534e-07
7.04934e-07
9.33738e-07
1.45118e-06
2.53551e-06
4.78679e-06
8.81721e-06
1.48629e-05
2.01127e-05
2.4755e-05
2.86692e-05
3.09482e-05
3.16004e-05
2.99649e-05
2.66959e-05
7.34056e-06
7.42703e-06
7.51357e-06
7.59998e-06
7.68603e-06
7.77152e-06
7.8564e-06
7.94043e-06
8.02352e-06
8.10533e-06
8.18577e-06
8.26442e-06
8.34112e-06
8.41554e-06
8.48678e-06
8.55674e-06
8.61736e-06
8.68913e-06
8.72142e-06
8.74993e-06
8.80309e-06
8.7968e-06
8.80632e-06
8.84801e-06
8.7777e-06
8.75383e-06
8.79414e-06
8.77761e-06
8.72262e-06
8.63171e-06
8.50336e-06
8.33346e-06
8.11611e-06
7.84367e-06
7.50688e-06
7.09475e-06
6.59394e-06
5.99105e-06
5.26805e-06
4.4189e-06
3.42209e-06
2.36216e-06
1.35e-06
5.74413e-07
2.11811e-07
1.7576e-07
1.83115e-07
1.78566e-07
1.60146e-07
1.43333e-07
1.1074e-07
7.94965e-08
6.3723e-08
5.49188e-08
5.12395e-08
5.68383e-08
7.83813e-08
1.16871e-07
1.75759e-07
2.53124e-07
3.42166e-07
4.39953e-07
5.63457e-07
6.92821e-07
8.16511e-07
8.96581e-07
9.48156e-07
9.83176e-07
9.53563e-07
0.000169517
0.000169479
0.000169515
0.00016953
0.000169581
0.000169616
0.000169621
0.000169603
0.000169503
0.000169448
0.000169422
0.000169408
0.000169555
0.000169647
0.000169683
0.000169558
0.000169569
0.000169586
0.000169616
0.000169579
0.000169528
0.000169633
0.000169639
0.00016968
0.00016969
0.000169636
0.000169728
0.00016978
0.000169859
0.000169931
0.00016989
0.000170018
0.000170119
0.000170201
0.000170334
0.000170352
0.000170511
0.000170635
0.00017073
0.000171038
0.000170992
0.000171088
0.000171114
0.000171198
0.000171482
0.000171576
0.000171612
0.000171653
0.000171799
0.000171965
0.000172125
0.000172398
0.000172578
0.000172699
0.000172837
0.000172941
0.000173051
0.000173161
0.000173271
0.000171178
0.000171206
0.000171213
0.000171177
0.000171141
0.00017111
0.000171018
0.000171023
0.000170994
0.000170932
0.000171011
0.00017107
0.000171127
0.000171148
0.000171085
0.000171058
0.000171082
0.000171092
0.000171081
0.000171053
0.00017105
0.000171112
0.000171122
0.000171178
0.000171171
0.000171138
0.000171232
0.000171312
0.000171352
0.000171424
0.000171443
0.00017155
0.000171654
0.000171733
0.000171913
0.000171966
0.000172099
0.000172254
0.000172348
0.000172663
0.000172731
0.00017286
0.000172921
0.000172943
0.000173118
0.000173309
0.000173414
0.000173476
0.000173583
0.000173735
0.000173882
0.000174087
0.000174303
0.000174463
0.000174622
0.00017475
0.000174864
0.00017498
0.000175084
0.000173033
0.000172972
0.000172927
0.000172934
0.000172911
0.000172834
0.000172817
0.000172777
0.000172782
0.000172846
0.000172888
0.000172911
0.000172932
0.000172921
0.000172853
0.000172824
0.000172838
0.000172835
0.000172801
0.000172792
0.000172824
0.000172855
0.000172875
0.000172925
0.000172915
0.000172908
0.000172999
0.0001731
0.000173119
0.000173194
0.00017326
0.000173355
0.000173463
0.00017355
0.000173751
0.00017385
0.000173974
0.000174145
0.000174242
0.000174548
0.000174715
0.000174865
0.000174983
0.000175045
0.000175143
0.000175322
0.000175484
0.000175597
0.000175701
0.000175834
0.000175979
0.000176145
0.000176344
0.000176527
0.000176699
0.000176854
0.000176989
0.000177121
0.000177234
0.000175162
0.000175141
0.000175102
0.000175085
0.000175073
0.000174971
0.000174959
0.000174955
0.000174993
0.000175
0.000175003
0.000175012
0.000175012
0.000174932
0.000174895
0.000174884
0.000174885
0.000174856
0.000174823
0.00017484
0.000174881
0.000174898
0.000174925
0.000174966
0.000174954
0.000174973
0.000175064
0.000175176
0.00017519
0.000175272
0.000175372
0.000175463
0.00017558
0.000175681
0.000175895
0.000176039
0.000176173
0.000176357
0.000176462
0.000176743
0.000176978
0.000177173
0.000177342
0.00017747
0.000177568
0.000177715
0.000177886
0.000178041
0.000178175
0.00017831
0.000178455
0.000178609
0.000178783
0.000178963
0.00017914
0.000179311
0.000179466
0.000179619
0.000179748
0.000177529
0.000177486
0.000177501
0.000177549
0.000177534
0.000177457
0.000177508
0.000177503
0.000177497
0.000177519
0.00017753
0.000177521
0.000177422
0.000177331
0.000177298
0.000177286
0.00017726
0.000177221
0.000177207
0.000177238
0.000177275
0.000177289
0.000177317
0.000177349
0.000177342
0.000177379
0.000177474
0.000177592
0.000177612
0.000177703
0.000177828
0.000177923
0.000178053
0.00017817
0.000178394
0.00017858
0.000178738
0.000178941
0.000179063
0.00017932
0.000179591
0.000179834
0.000180051
0.000180244
0.000180391
0.000180541
0.00018071
0.000180885
0.00018105
0.000181207
0.000181365
0.000181525
0.000181693
0.000181868
0.000182044
0.00018222
0.000182386
0.000182555
0.0001827
0.000180726
0.00018076
0.000180737
0.000180723
0.000180644
0.000180577
0.000180558
0.000180543
0.000180513
0.000180426
0.000180297
0.000180246
0.000180214
0.000180161
0.000180118
0.000180083
0.000180043
0.000180014
0.000180016
0.000180048
0.000180077
0.00018009
0.000180117
0.000180143
0.000180145
0.000180194
0.000180295
0.000180418
0.000180451
0.000180553
0.000180699
0.000180806
0.000180948
0.000181084
0.000181316
0.000181541
0.000181731
0.000181961
0.000182116
0.000182356
0.000182643
0.000182927
0.000183189
0.000183438
0.000183651
0.000183842
0.000184031
0.000184223
0.000184413
0.000184597
0.000184779
0.000184958
0.000185138
0.00018532
0.000185501
0.000185685
0.000185859
0.000186042
0.000186199
0.000184285
0.000184099
0.000184037
0.000183983
0.000183979
0.000183944
0.000183817
0.000183749
0.0001837
0.000183645
0.000183676
0.000183612
0.000183484
0.000183433
0.000183424
0.000183376
0.00018333
0.00018331
0.00018332
0.000183347
0.000183368
0.000183381
0.000183405
0.000183426
0.00018344
0.000183503
0.00018361
0.000183737
0.000183787
0.000183904
0.000184069
0.000184193
0.00018435
0.000184508
0.00018475
0.000185008
0.000185237
0.000185501
0.000185699
0.00018594
0.000186234
0.000186548
0.000186853
0.00018715
0.000187426
0.000187676
0.000187911
0.000188139
0.000188361
0.000188577
0.000188789
0.000188996
0.0001892
0.000189402
0.0001896
0.000189799
0.000189988
0.000190188
0.000190359
0.000187949
0.000187832
0.000187863
0.000187917
0.000187851
0.00018792
0.000187735
0.000187638
0.000187627
0.000187628
0.000187433
0.000187367
0.000187342
0.000187377
0.000187271
0.000187222
0.000187216
0.000187204
0.000187213
0.000187231
0.000187245
0.000187257
0.000187276
0.000187297
0.000187325
0.0001874
0.000187515
0.000187647
0.00018772
0.000187853
0.000188036
0.000188183