/*--------------------------------*- C++ -*----------------------------------*\
| =========                 |                                                 |
| \\      /  F ield         | OpenFOAM: The Open Source CFD Toolbox           |
|  \\    /   O peration     | Version:  2312                                  |
|   \\  /    A nd           | Website:  www.openfoam.com                      |
|    \\/     M anipulation  |                                                 |
\*---------------------------------------------------------------------------*/
FoamFile
{
    version     2.0;
    format      ascii;
    arch        "LSB;label=32;scalar=64";
    class       volScalarField;
    location    "1600";
    object      omega;
}
// * * * * * * * * * * * * * * * * * * * * * * * * * * * * * * * * * * * * * //

dimensions      [0 0 -1 0 0 0 0];

internalField   nonuniform List<scalar> 
76025
(
0.0298399
0.0298499
0.0298615
0.0298696
0.0298741
0.0298904
0.0298951
0.0299097
0.0299182
0.0299325
0.0299453
0.0299612
0.0299797
0.0299968
0.030018
0.0300386
0.0300595
0.0300862
0.030106
0.0301331
0.0301594
0.0301893
0.0302135
0.0302428
0.0302688
0.0302974
0.0303296
0.0303562
0.0303942
0.0304235
0.030458
0.0305028
0.0305495
0.0306051
0.0306639
0.0307285
0.030807
0.0308933
0.0309957
0.0311075
0.0312321
0.0313828
0.0315531
0.0317464
0.031963
0.0322134
0.0324892
0.0328015
0.0331541
0.0335344
0.033967
0.0344407
0.0349675
0.0355192
0.0361942
0.0368823
0.0377
0.0386098
0.0396626
0.0408772
0.0422382
0.0438028
0.0455313
0.0475632
0.0498137
0.052203
0.0547769
0.0576495
0.0603674
0.0301414
0.030154
0.0301672
0.0301809
0.0301898
0.0302039
0.0302148
0.0302286
0.0302423
0.0302573
0.0302728
0.0302898
0.0303088
0.0303287
0.0303517
0.0303742
0.0303989
0.0304244
0.0304513
0.0304787
0.030508
0.0305401
0.0305727
0.0306077
0.0306451
0.0306824
0.030724
0.0307669
0.030814
0.0308659
0.0309227
0.0309826
0.0310517
0.031126
0.0312101
0.0313034
0.0314067
0.0315249
0.0316557
0.0318019
0.0319665
0.0321491
0.0323568
0.032586
0.0328438
0.0331289
0.0334467
0.0337977
0.0341834
0.0346117
0.0350807
0.0356054
0.0361822
0.0368404
0.0375682
0.0384039
0.0393478
0.0404287
0.0416581
0.0430609
0.0446476
0.0464297
0.0483825
0.0505379
0.0528218
0.0553271
0.0580695
0.0611702
0.064789
0.0305089
0.0305225
0.0305366
0.0305526
0.030567
0.0305826
0.030598
0.0306143
0.0306317
0.0306503
0.03067
0.030691
0.0307141
0.0307383
0.0307654
0.0307932
0.0308229
0.0308535
0.0308859
0.0309196
0.0309549
0.0309926
0.0310329
0.0310758
0.0311224
0.0311716
0.031225
0.0312824
0.031345
0.0314129
0.0314879
0.031569
0.0316584
0.0317564
0.0318645
0.0319836
0.0321149
0.0322605
0.0324216
0.0325993
0.0327958
0.0330132
0.0332542
0.0335199
0.033813
0.0341358
0.0344921
0.0348838
0.0353163
0.0357939
0.0363247
0.0369156
0.0375798
0.0383256
0.0391696
0.0401272
0.0412143
0.0424496
0.0438442
0.0454164
0.0471614
0.0490907
0.051176
0.0534621
0.055913
0.0586759
0.0617154
0.0652978
0.0693535
0.030947
0.0309632
0.0309797
0.0309973
0.0310154
0.0310343
0.0310539
0.0310742
0.0310956
0.0311182
0.0311423
0.031168
0.031196
0.0312258
0.031258
0.031292
0.0313279
0.0313654
0.0314048
0.0314461
0.0314896
0.0315358
0.0315852
0.031638
0.0316948
0.0317559
0.0318221
0.0318936
0.0319715
0.032056
0.0321482
0.0322486
0.0323582
0.032478
0.0326091
0.0327528
0.0329103
0.0330833
0.0332732
0.0334816
0.0337103
0.0339616
0.0342378
0.0345411
0.0348742
0.0352404
0.0356435
0.0360882
0.0365798
0.0371257
0.0377342
0.0384164
0.0391837
0.0400509
0.0410324
0.0421451
0.0434027
0.0448188
0.0464002
0.0481532
0.0500715
0.0521647
0.0544157
0.0568945
0.0595764
0.062667
0.0661216
0.070278
0.0751359
0.0314634
0.0314844
0.0315055
0.031527
0.0315492
0.0315723
0.0315964
0.0316214
0.0316476
0.0316751
0.0317042
0.0317352
0.0317685
0.0318042
0.0318424
0.031883
0.0319261
0.0319714
0.032019
0.0320692
0.0321222
0.0321784
0.0322383
0.0323023
0.0323711
0.0324452
0.0325252
0.0326118
0.0327056
0.0328074
0.032918
0.0330381
0.0331688
0.0333113
0.0334665
0.033636
0.033821
0.0340232
0.0342442
0.0344857
0.0347498
0.0350389
0.0353557
0.0357031
0.0360846
0.0365041
0.0369668
0.0374787
0.0380471
0.0386809
0.0393906
0.0401888
0.0410887
0.042105
0.0432514
0.0445412
0.0459834
0.0475843
0.049345
0.0512654
0.0533464
0.0556011
0.0580481
0.0607719
0.0637863
0.0673576
0.0713774
0.0763677
0.0821712
0.0320753
0.0321013
0.0321279
0.0321548
0.0321824
0.0322111
0.0322409
0.0322717
0.0323039
0.0323374
0.0323727
0.03241
0.0324497
0.032492
0.0325371
0.0325852
0.0326362
0.0326901
0.0327471
0.0328072
0.0328708
0.0329383
0.0330101
0.0330867
0.033169
0.0332575
0.0333529
0.033456
0.0335674
0.0336879
0.0338186
0.0339601
0.0341137
0.0342806
0.034462
0.0346594
0.0348743
0.0351084
0.0353636
0.0356421
0.0359463
0.0362792
0.036644
0.0370446
0.0374855
0.0379719
0.0385104
0.0391088
0.039776
0.0405228
0.0413609
0.0423035
0.0433634
0.0445532
0.0458825
0.0473595
0.0489868
0.0507658
0.052697
0.0547839
0.0570456
0.0595089
0.0622383
0.0653207
0.0688326
0.0730452
0.0778114
0.0838843
0.0908207
0.0328048
0.032835
0.0328666
0.0328991
0.0329328
0.0329679
0.0330044
0.0330423
0.0330817
0.0331227
0.0331656
0.0332107
0.0332582
0.0333086
0.033362
0.0334187
0.0334789
0.0335427
0.0336101
0.0336815
0.0337571
0.0338373
0.0339225
0.0340136
0.0341112
0.0342161
0.034329
0.0344505
0.0345817
0.0347234
0.0348766
0.0350422
0.0352216
0.0354161
0.0356271
0.0358562
0.0361052
0.0363763
0.0366717
0.0369941
0.0373466
0.0377331
0.0381578
0.0386256
0.0391424
0.0397151
0.0403517
0.0410614
0.0418547
0.042743
0.0437378
0.0448508
0.0460917
0.0474687
0.048986
0.0506467
0.0524503
0.0544008
0.0565058
0.0587849
0.0612815
0.064042
0.0671775
0.0707601
0.0749551
0.0799691
0.0857047
0.0931688
0.101323
0.0336754
0.03371
0.0337465
0.0337845
0.0338244
0.0338663
0.03391
0.0339558
0.0340035
0.0340532
0.0341052
0.0341596
0.0342168
0.0342769
0.0343405
0.0344077
0.0344788
0.034554
0.0346337
0.034718
0.0348074
0.0349021
0.0350032
0.0351111
0.0352266
0.0353504
0.0354833
0.0356263
0.0357803
0.0359464
0.0361255
0.0363191
0.0365285
0.0367552
0.037001
0.0372679
0.037558
0.037874
0.0382189
0.0385962
0.0390099
0.039465
0.039967
0.0405222
0.0411379
0.0418222
0.0425844
0.0434344
0.0443825
0.0454389
0.0466126
0.0479115
0.0493405
0.0509032
0.0526002
0.054435
0.0564109
0.0585442
0.0608578
0.0633959
0.0662248
0.0694129
0.0731086
0.0773586
0.0824489
0.08843
0.0954631
0.104618
0.114053
0.0347121
0.0347527
0.0347955
0.03484
0.0348868
0.034936
0.0349878
0.035042
0.0350989
0.0351584
0.0352207
0.035286
0.0353545
0.0354265
0.0355022
0.0355821
0.0356663
0.0357554
0.0358495
0.0359492
0.0360548
0.0361671
0.0362868
0.0364145
0.036551
0.0366971
0.0368538
0.0370221
0.0372031
0.0373981
0.0376083
0.0378354
0.0380811
0.0383472
0.038636
0.0389499
0.039292
0.0396655
0.0400744
0.0405232
0.0410173
0.0415627
0.0421665
0.0428358
0.0435789
0.0444045
0.0453214
0.0463385
0.0474637
0.0487039
0.050064
0.0515476
0.0531563
0.054893
0.056761
0.058772
0.0609418
0.0633061
0.0659064
0.0688131
0.0721089
0.075885
0.0803158
0.085426
0.091654
0.0988031
0.107618
0.118665
0.1299
0.0359457
0.0359948
0.0360461
0.0360991
0.0361547
0.036213
0.0362743
0.0363385
0.0364059
0.0364766
0.0365508
0.0366286
0.0367103
0.0367961
0.0368863
0.0369813
0.0370814
0.0371871
0.0372988
0.0374169
0.0375425
0.037676
0.0378182
0.0379698
0.0381317
0.038305
0.0384907
0.03869
0.0389043
0.0391352
0.0393843
0.0396537
0.0399456
0.0402624
0.040607
0.0409827
0.0413934
0.0418434
0.0423378
0.042882
0.0434827
0.0441466
0.0448818
0.0456952
0.0465944
0.0475867
0.048679
0.0498768
0.0511844
0.0526052
0.0541412
0.0557952
0.0575709
0.0594776
0.0615287
0.063751
0.0661775
0.068865
0.0718713
0.0752916
0.0792165
0.083767
0.0891344
0.0953426
0.103006
0.111619
0.122886
0.135947
0.150988
0.0374173
0.0374776
0.0375402
0.0376047
0.0376718
0.037742
0.0378154
0.0378921
0.0379725
0.0380568
0.0381452
0.0382379
0.0383353
0.0384376
0.0385453
0.0386586
0.0387781
0.0389041
0.0390375
0.0391791
0.0393294
0.0394893
0.0396596
0.0398412
0.0400352
0.040243
0.0404657
0.0407051
0.0409628
0.0412408
0.0415414
0.0418672
0.0422211
0.0426064
0.0430267
0.0434863
0.04399
0.0445428
0.0451506
0.0458195
0.0465561
0.0473671
0.0482593
0.0492388
0.0503103
0.0514781
0.0527459
0.0541163
0.0555917
0.057175
0.0588704
0.0606862
0.0626351
0.0647384
0.0670249
0.0695382
0.0723284
0.0754707
0.0790361
0.0831442
0.0878898
0.0934401
0.0999944
0.107621
0.117118
0.127673
0.142249
0.157831
0.180512
0.0391837
0.0392581
0.0393352
0.0394144
0.0394967
0.0395824
0.0396716
0.0397647
0.039862
0.0399637
0.0400702
0.0401819
0.0402991
0.0404223
0.040552
0.0406885
0.0408326
0.0409852
0.041147
0.0413188
0.0415014
0.0416958
0.0419031
0.0421245
0.0423615
0.0426156
0.0428887
0.0431828
0.0435001
0.0438432
0.0442151
0.044619
0.0450586
0.0455377
0.0460607
0.0466323
0.0472576
0.0479418
0.0486902
0.0495082
0.0504009
0.0513734
0.0524298
0.0535745
0.0548097
0.0561373
0.0575595
0.0590796
0.0607028
0.0624371
0.064295
0.0662953
0.0684637
0.0708358
0.0734559
0.0763828
0.0796815
0.0834442
0.0877551
0.0927634
0.0985698
0.105417
0.113498
0.123006
0.134903
0.148172
0.16724
0.187177
0.222872
0.0413232
0.0414154
0.0415108
0.0416092
0.0417112
0.0418173
0.0419276
0.0420426
0.0421625
0.0422878
0.0424189
0.0425563
0.0427005
0.042852
0.0430116
0.0431804
0.043359
0.0435484
0.0437494
0.0439631
0.0441907
0.0444334
0.0446927
0.0449704
0.0452681
0.0455879
0.0459322
0.0463034
0.0467044
0.047138
0.0476077
0.0481172
0.0486701
0.0492704
0.0499222
0.0506297
0.051397
0.0522279
0.0531263
0.0540956
0.0551389
0.0562592
0.0574591
0.0587419
0.0601103
0.0615706
0.0631249
0.064783
0.0665574
0.0684657
0.0705316
0.072786
0.075268
0.0780267
0.0811202
0.0846214
0.0886111
0.0932006
0.098494
0.104681
0.111878
0.120443
0.130544
0.142639
0.157781
0.175057
0.200716
0.229441
0.281957
0.0439474
0.0440628
0.0441826
0.0443065
0.0444353
0.0445694
0.0447091
0.0448548
0.0450068
0.0451658
0.0453324
0.0455069
0.0456908
0.0458848
0.0460897
0.0463064
0.046536
0.0467795
0.0470383
0.0473137
0.0476071
0.0479203
0.048255
0.0486132
0.048997
0.0494087
0.0498507
0.0503257
0.0508363
0.0513854
0.0519762
0.0526116
0.0532946
0.054028
0.0548148
0.0556577
0.0565591
0.0575217
0.0585477
0.0596397
0.0608004
0.062033
0.0633418
0.0647324
0.0662124
0.0677922
0.0694849
0.0713102
0.0732855
0.0754401
0.0778088
0.0804345
0.0833689
0.0866738
0.0904223
0.0947036
0.0996208
0.105311
0.111914
0.119675
0.128747
0.139659
0.152529
0.168327
0.188069
0.21184
0.248525
0.292842
0.381016
0.0472252
0.0473737
0.0475287
0.0476897
0.0478578
0.0480333
0.0482167
0.0484085
0.0486093
0.0488203
0.0490421
0.0492754
0.0495211
0.0497801
0.0500534
0.0503423
0.0506478
0.0509712
0.051314
0.0516776
0.0520636
0.0524735
0.0529091
0.0533722
0.0538646
0.0543882
0.054945
0.0555369
0.0561658
0.0568339
0.0575432
0.0582954
0.0590925
0.0599363
0.0608289
0.0617723
0.062769
0.0638216
0.0649336
0.066109
0.0673534
0.0686736
0.0700784
0.0715789
0.0731892
0.0749271
0.0768143
0.0788779
0.0811499
0.083672
0.0864851
0.089645
0.093217
0.0972784
0.101923
0.107263
0.113437
0.120622
0.129018
0.138948
0.150647
0.164872
0.181716
0.203152
0.230068
0.265719
0.321386
0.397423
0.558936
0.0514342
0.0516343
0.0518441
0.052063
0.0522927
0.0525335
0.0527859
0.0530504
0.0533273
0.0536175
0.0539217
0.0542405
0.0545749
0.0549256
0.0552936
0.0556797
0.0560849
0.0565102
0.0569567
0.0574253
0.0579171
0.0584333
0.0589748
0.0595428
0.0601384
0.0607628
0.0614172
0.0621027
0.0628207
0.0635728
0.0643604
0.0651853
0.0660496
0.0669558
0.0679069
0.0689066
0.0699591
0.0710701
0.0722462
0.0734954
0.0748279
0.0762555
0.0777929
0.0794575
0.0812704
0.0832568
0.0854468
0.0878763
0.0905884
0.0936352
0.0970798
0.100995
0.105457
0.110565
0.116448
0.123249
0.131176
0.140453
0.151396
0.164427
0.179961
0.199097
0.222202
0.253019
0.292648
0.351096
0.440691
0.585048
0.876024
0.0570323
0.0573119
0.0576046
0.0579098
0.0582281
0.0585599
0.0589055
0.0592651
0.0596388
0.0600271
0.0604302
0.0608485
0.0612823
0.061732
0.0621979
0.0626804
0.06318
0.0636969
0.0642318
0.064785
0.0653571
0.0659487
0.0665604
0.0671931
0.0678476
0.0685251
0.0692267
0.0699542
0.0707093
0.0714945
0.0723123
0.073166
0.0740597
0.0749981
0.0759866
0.0770321
0.0781422
0.0793263
0.0805952
0.0819616
0.0834404
0.0850491
0.0868081
0.0887416
0.0908778
0.0932502
0.0958986
0.0988706
0.102223
0.106026
0.110364
0.115343
0.121059
0.127641
0.135282
0.14417
0.154633
0.166952
0.181659
0.199378
0.220896
0.248075
0.282178
0.329748
0.394655
0.495802
0.649773
0.933205
1.24559
0.0645932
0.0649603
0.0653413
0.0657349
0.0661412
0.0665602
0.0669915
0.0674349
0.0678903
0.0683574
0.0688362
0.0693265
0.0698284
0.0703417
0.0708665
0.071403
0.0719513
0.0725117
0.0730846
0.0736705
0.0742701
0.0748842
0.0755141
0.0761609
0.0768265
0.0775127
0.0782221
0.0789577
0.0797228
0.0805216
0.081359
0.0822404
0.0831725
0.0841628
0.0852201
0.0863544
0.0875772
0.0889018
0.0903435
0.0919198
0.0936511
0.0955608
0.0976763
0.10003
0.102659
0.105608
0.108932
0.112696
0.116979
0.121877
0.127515
0.134027
0.14156
0.150291
0.160531
0.17252
0.186812
0.203813
0.224462
0.250025
0.281632
0.323482
0.378296
0.458413
0.575597
0.749207
1.03187
1.30561
1.35022
0.0744618
0.0748767
0.075304
0.0757421
0.0761905
0.0766486
0.0771159
0.077592
0.0780764
0.0785688
0.0790692
0.0795774
0.0800934
0.0806172
0.081149
0.0816893
0.0822385
0.0827972
0.0833665
0.0839474
0.0845413
0.08515
0.0857755
0.0864202
0.0870872
0.0877798
0.088502
0.0892586
0.0900551
0.0908975
0.0917931
0.0927502
0.0937781
0.0948874
0.0960903
0.0974007
0.0988342
0.100409
0.102145
0.104067
0.106201
0.10858
0.11124
0.114226
0.117591
0.121395
0.125719
0.130654
0.136318
0.142856
0.150443
0.159255
0.16953
0.181548
0.195812
0.212715
0.233206
0.258151
0.288952
0.328889
0.378602
0.450221
0.546367
0.692883
0.904537
1.19022
1.36509
1.39481
1.29588
0.0867149
0.0871309
0.087554
0.0879833
0.0884194
0.0888621
0.0893114
0.0897677
0.090232
0.090704
0.0911834
0.0916704
0.0921652
0.0926682
0.0931801
0.0937017
0.0942342
0.094779
0.0953377
0.0959123
0.0965051
0.0971189
0.0977569
0.0984228
0.0991211
0.0998567
0.100635
0.101464
0.10235
0.103302
0.104331
0.105446
0.106661
0.107991
0.109452
0.111063
0.112845
0.114822
0.117023
0.119481
0.122233
0.125324
0.128809
0.13275
0.137225
0.142327
0.148178
0.154918
0.162731
0.171834
0.182449
0.194911
0.209562
0.227004
0.247983
0.273511
0.304743
0.344417
0.393359
0.462208
0.547683
0.683028
0.861864
1.12442
1.34245
1.41821
1.4051
1.30095
1.08394
0.101719
0.10211
0.102505
0.102904
0.103307
0.103715
0.104129
0.104549
0.104976
0.105411
0.105855
0.106309
0.106774
0.107251
0.107742
0.108249
0.108774
0.109319
0.109887
0.11048
0.111103
0.111758
0.112451
0.113186
0.113971
0.114811
0.115715
0.116692
0.117753
0.118909
0.120173
0.121561
0.123091
0.124783
0.126659
0.128745
0.131073
0.133676
0.136595
0.13988
0.143585
0.14778
0.152548
0.157985
0.164218
0.171394
0.179714
0.189398
0.200757
0.214089
0.229767
0.248568
0.270806
0.298152
0.331015
0.373011
0.423342
0.492956
0.576816
0.709168
0.866751
1.12802
1.37779
1.46722
1.45465
1.40046
1.23356
1.05542
0.900548
0.120589
0.120949
0.121312
0.121678
0.122049
0.122426
0.122811
0.123204
0.123606
0.12402
0.124448
0.124889
0.125348
0.125826
0.126325
0.126849
0.1274
0.127984
0.128602
0.129262
0.129967
0.130723
0.131537
0.132415
0.133366
0.134401
0.135529
0.136763
0.138119
0.139612
0.141262
0.14309
0.145123
0.147388
0.149921
0.152759
0.155948
0.159544
0.16361
0.168221
0.173472
0.179475
0.186366
0.194311
0.203541
0.214294
0.226955
0.241867
0.259563
0.280561
0.305619
0.336382
0.372537
0.419061
0.473687
0.549736
0.636221
0.771893
0.926806
1.18969
1.46226
1.56354
1.54526
1.47737
1.28459
1.0791
0.962655
0.86481
0.775972
0.145534
0.145882
0.146234
0.146591
0.146956
0.14733
0.147716
0.148115
0.148529
0.148962
0.149414
0.14989
0.150393
0.150925
0.151491
0.152094
0.152741
0.153436
0.154185
0.154996
0.155875
0.156831
0.157872
0.15901
0.160255
0.161623
0.16313
0.164793
0.166635
0.168682
0.170962
0.173508
0.176362
0.179568
0.183181
0.187267
0.191902
0.197179
0.20321
0.210134
0.21812
0.227376
0.238173
0.250817
0.265779
0.283432
0.304574
0.329548
0.35975
0.395602
0.439142
0.492814
0.556465
0.640601
0.741008
0.888309
1.0518
1.32064
1.59768
1.70851
1.68788
1.60585
1.34171
1.01999
0.873049
0.8227
0.78457
0.73461
0.688842
0.180982
0.181369
0.181763
0.182168
0.182586
0.18302
0.183473
0.183948
0.184448
0.184976
0.185537
0.186135
0.186774
0.187459
0.188197
0.188993
0.189855
0.19079
0.191808
0.192916
0.194127
0.19545
0.1969
0.198494
0.20025
0.202192
0.204345
0.206741
0.209416
0.212413
0.215781
0.219581
0.223883
0.228773
0.234352
0.240745
0.248103
0.256612
0.266502
0.278058
0.291634
0.307673
0.326735
0.349375
0.376566
0.40866
0.447453
0.493412
0.548731
0.614109
0.69532
0.792944
0.919574
1.07003
1.28698
1.54816
1.8127
1.88455
1.85584
1.774
1.42885
0.971695
0.762011
0.690003
0.679516
0.680915
0.670858
0.643928
0.615882
0.236952
0.237487
0.238036
0.238604
0.239194
0.239813
0.240463
0.241149
0.241876
0.242649
0.243474
0.244357
0.245306
0.246328
0.247431
0.248622
0.249913
0.251315
0.252839
0.254501
0.256316
0.258303
0.260486
0.262899
0.265578
0.268569
0.271923
0.275701
0.279975
0.284831
0.290373
0.296726
0.304041
0.312505
0.322346
0.333847
0.347353
0.363298
0.382207
0.404735
0.431627
0.463812
0.50225
0.547755
0.602339
0.666145
0.741997
0.832946
0.932928
1.06314
1.2125
1.41117
1.66312
1.91435
2.09611
2.10436
2.06016
1.94106
1.51015
0.92559
0.684962
0.579997
0.550879
0.556539
0.578148
0.591262
0.592662
0.576981
0.553848
0.342335
0.343196
0.34409
0.34502
0.345993
0.34701
0.348079
0.349204
0.350391
0.351649
0.352984
0.354406
0.355925
0.357552
0.3593
0.361182
0.363214
0.365416
0.367805
0.370402
0.373245
0.376372
0.379842
0.38381
0.388363
0.393606
0.399662
0.406679
0.414833
0.424336
0.43545
0.44849
0.463845
0.481987
0.503501
0.529101
0.559637
0.596121
0.639721
0.691683
0.753205
0.825579
0.910395
1.008
1.12171
1.24902
1.39383
1.56379
1.7183
2.00464
2.23383
2.39918
2.3972
2.39187
2.22912
2.03443
1.46296
0.979755
0.760594
0.591064
0.51293
0.485484
0.483187
0.499225
0.518694
0.530777
0.534206
0.525663
0.506374
0.591544
0.593235
0.594951
0.5967
0.598494
0.600348
0.602272
0.60428
0.606384
0.608597
0.610935
0.613411
0.616048
0.618859
0.621875
0.625115
0.628605
0.632409
0.636499
0.640989
0.646147
0.652056
0.659487
0.668582
0.679617
0.692899
0.708784
0.727693
0.750134
0.7767
0.80812
0.845226
0.889032
0.940668
1.00142
1.07279
1.15602
1.25252
1.36343
1.4896
1.63156
1.78816
1.96026
2.14103
2.33799
2.52326
2.73139
2.8857
3.04304
2.96127
2.8197
2.62258
2.38771
1.785
1.3151
1.04317
0.902862
0.833476
0.757906
0.663609
0.578392
0.537845
0.530462
0.534795
0.54361
0.550332
0.552701
0.54506
0.525294
1.51439
1.51756
1.52076
1.52399
1.52729
1.53066
1.53412
1.53769
1.5414
1.54526
1.54932
1.55355
1.55811
1.56285
1.56806
1.57359
1.57944
1.58665
1.59242
1.60376
1.623
1.65079
1.68674
1.73091
1.78395
1.84632
1.91835
2.00054
2.09344
2.19756
2.31339
2.4414
2.58174
2.73436
2.89894
3.07475
3.2604
3.45365
3.6514
3.8483
4.03982
4.214
4.36621
4.47872
4.5303
4.48211
4.31332
4.09497
3.40829
2.61087
1.92779
1.5262
1.40232
1.36405
1.42784
1.6231
1.7498
1.8148
1.76934
1.58088
1.32418
1.08763
1.00508
0.967252
0.937091
0.916265
0.901427
0.884946
0.848907
8.69832
8.69278
8.68632
8.67892
8.67053
8.66113
8.65071
8.63925
8.62671
8.61308
8.59834
8.58245
8.5654
8.54713
8.52767
8.5069
8.48482
8.46175
8.43531
8.40926
8.3784
8.34747
8.31766
8.27926
8.24341
8.21105
8.17384
8.13304
8.08883
8.0411
7.98955
7.93378
7.8733
7.80752
7.73574
7.6571
7.57068
7.47545
7.37027
7.25466
7.12768
6.99467
6.86584
6.75592
6.6802
6.63679
6.59957
6.56197
6.5233
6.48511
6.44623
6.40757
6.37085
6.33537
6.30099
6.26797
6.23697
6.20805
6.18152
6.1573
6.13498
6.1144
6.09687
6.08107
6.06627
6.04971
6.03245
6.01543
5.99539
0.0290781
0.0290871
0.0290985
0.0291092
0.0291268
0.029145
0.0291612
0.0291694
0.0291719
0.02917
0.0291702
0.0291979
0.0292426
0.0292769
0.0292938
0.0292844
0.0293186
0.0293461
0.0293641
0.0293711
0.0293777
0.0293958
0.0294014
0.0294129
0.0294209
0.0294255
0.0294557
0.0294725
0.029484
0.0294973
0.0295012
0.029537
0.0295624
0.029574
0.0295924
0.0295882
0.029604
0.0296177
0.0296274
0.0296717
0.0296601
0.0296698
0.0296655
0.0296659
0.029685
0.0296837
0.0296793
0.0296783
0.029691
0.0297082
0.0297245
0.0297608
0.0297778
0.0297866
0.0297976
0.0298031
0.0298111
0.0298201
0.0298298
0.0293368
0.0293456
0.0293574
0.0293698
0.0293816
0.0293886
0.0293911
0.0293882
0.029391
0.0294056
0.0294305
0.0294695
0.0294945
0.0295072
0.0295099
0.0295233
0.0295617
0.0295804
0.0295904
0.0295995
0.0296101
0.0296215
0.0296309
0.0296446
0.02965
0.029659
0.0296892
0.0297098
0.0297147
0.0297283
0.0297424
0.029774
0.0298002
0.0298122
0.0298398
0.0298426
0.0298543
0.0298728
0.0298833
0.0299272
0.0299369
0.0299452
0.0299472
0.0299465
0.029959
0.0299726
0.0299756
0.0299754
0.0299837
0.0299989
0.030013
0.0300382
0.0300638
0.0300797
0.0300954
0.030106
0.0301145
0.0301245
0.0301326
0.029638
0.0296482
0.0296585
0.029663
0.0296655
0.0296659
0.0296658
0.0296694
0.0296867
0.0297137
0.0297435
0.0297633
0.0297728
0.0297782
0.0297889
0.0298211
0.0298435
0.0298542
0.0298632
0.0298763
0.0298889
0.0298976
0.0299088
0.0299223
0.0299274
0.0299418
0.0299711
0.0299946
0.0299963
0.0300104
0.0300326
0.0300614
0.0300887
0.030103
0.0301352
0.0301467
0.0301577
0.0301782
0.0301895
0.0302322
0.0302573
0.0302758
0.0302852
0.0302914
0.0302969
0.0303122
0.0303238
0.0303296
0.0303365
0.0303491
0.0303637
0.0303826
0.0304072
0.0304285
0.0304479
0.0304645
0.0304774
0.0304906
0.0305003
0.0299912
0.0299921
0.0299934
0.0299934
0.0299924
0.0299989
0.0300091
0.0300267
0.0300522
0.0300758
0.0300904
0.0300977
0.0301005
0.0301146
0.0301389
0.0301602
0.0301723
0.0301814
0.0301933
0.0302077
0.030221
0.0302291
0.0302409
0.0302531
0.0302598
0.0302793
0.0303076
0.0303325
0.0303337
0.0303492
0.0303769
0.0304045
0.0304337
0.0304516
0.0304867
0.0305069
0.0305207
0.0305429
0.0305554
0.0305947
0.0306294
0.0306583
0.030678
0.0306947
0.0307039
0.0307177
0.0307332
0.0307457
0.0307561
0.0307684
0.0307831
0.0308
0.0308211
0.0308433
0.0308651
0.0308859
0.0309038
0.0309219
0.0309355
0.030396
0.0303979
0.0304025
0.0304039
0.0304077
0.0304219
0.030441
0.030463
0.0304788
0.0304867
0.0304897
0.0304903
0.0305058
0.030526
0.0305435
0.0305561
0.0305651
0.0305752
0.030588
0.0306025
0.0306153
0.0306238
0.0306356
0.0306466
0.0306564
0.0306794
0.0307073
0.0307327
0.0307354
0.0307528
0.0307843
0.0308123
0.0308439
0.0308657
0.0309033
0.0309317
0.0309508
0.0309762
0.0309914
0.0310272
0.0310668
0.0311044
0.0311338
0.0311609
0.0311804
0.0311982
0.031217
0.0312348
0.0312508
0.0312662
0.0312826
0.0313002
0.03132
0.0313416
0.0313639
0.0313867
0.0314077
0.0314301
0.0314476
0.0308912
0.0308866
0.0308943
0.0308994
0.030915
0.0309315
0.030943
0.0309496
0.0309531
0.0309523
0.0309643
0.0309776
0.0309946
0.0310069
0.0310181
0.0310269
0.031035
0.0310454
0.0310584
0.0310725
0.0310844
0.0310934
0.0311049
0.0311156
0.031129
0.0311542
0.0311821
0.0312081
0.0312135
0.0312331
0.0312679
0.0312974
0.0313315
0.0313576
0.0313974
0.0314334
0.0314595
0.0314897
0.0315099
0.0315436
0.0315854
0.0316294
0.0316677
0.031704
0.0317349
0.0317616
0.0317867
0.0318107
0.0318332
0.0318543
0.031875
0.0318958
0.0319173
0.0319399
0.0319631
0.0319873
0.0320103
0.0320357
0.0320561
0.031483
0.0314878
0.031494
0.0315058
0.031519
0.0315249
0.0315291
0.0315322
0.0315352
0.0315395
0.0315476
0.0315567
0.0315664
0.0315744
0.0315815
0.0315881
0.0315958
0.0316062
0.0316189
0.0316319
0.0316429
0.0316523
0.0316635
0.0316752
0.0316917
0.0317183
0.0317468
0.0317736
0.0317828
0.0318051
0.0318426
0.0318748
0.0319117
0.0319426
0.0319848
0.0320276
0.0320618
0.0320983
0.0321257
0.0321601
0.032203
0.0322514
0.0322975
0.0323421
0.0323834
0.0324207
0.0324551
0.0324875
0.032518
0.0325467
0.0325741
0.0326007
0.0326269
0.0326532
0.0326793
0.0327061
0.0327315
0.0327599
0.0327828
0.0322076
0.0322134
0.0322175
0.032221
0.0322236
0.0322251
0.0322267
0.0322275
0.0322289
0.032231
0.0322344
0.0322389
0.0322436
0.0322479
0.0322522
0.0322575
0.0322649
0.0322749
0.0322866
0.0322982
0.0323084
0.0323179
0.0323292
0.0323423
0.0323617
0.0323896
0.0324192
0.0324471
0.0324607
0.0324863
0.0325266
0.0325624
0.0326027
0.0326388
0.0326842
0.0327332
0.032776
0.0328202
0.0328567
0.0328952
0.03294
0.0329918
0.0330446
0.0330969
0.0331476
0.0331954
0.0332403
0.0332827
0.0333229
0.033361
0.0333973
0.033432
0.0334655
0.0334981
0.0335298
0.0335614
0.0335911
0.0336237
0.03365
0.0330581
0.0330565
0.0330581
0.0330577
0.0330578
0.0330548
0.033042
0.0330414
0.0330396
0.0330419
0.0330482
0.0330498
0.0330499
0.0330507
0.033053
0.0330572
0.0330638
0.0330727
0.0330828
0.0330928
0.0331021
0.0331117
0.0331235
0.0331386
0.0331606
0.03319
0.033221
0.0332504
0.0332691
0.0332987
0.0333419
0.0333822
0.0334267
0.0334687
0.0335183
0.0335735
0.0336251
0.033678
0.0337251
0.0337712
0.0338207
0.0338764
0.0339352
0.033995
0.0340544
0.0341123
0.034168
0.0342213
0.0342724
0.0343212
0.0343679
0.0344126
0.0344555
0.0344968
0.0345364
0.0345753
0.0346115
0.0346503
0.0346817
0.0340474
0.0340494
0.0340472
0.0340409
0.0340196
0.03401
0.0340061
0.0340113
0.0340208
0.0340211
0.0340174
0.0340043
0.0340073
0.0340102
0.034011
0.0340139
0.0340191
0.0340262
0.0340343
0.0340427
0.0340512
0.0340609
0.0340737
0.034091
0.0341154
0.0341465
0.0341794
0.0342109
0.0342351
0.0342696
0.0343163
0.0343619
0.0344116
0.0344604
0.0345154
0.0345772
0.0346381
0.0347006
0.0347596
0.0348163
0.0348738
0.0349357
0.0350012
0.0350688
0.0351372
0.0352051
0.0352717
0.0353364
0.0353991
0.0354597
0.035518
0.0355741
0.035628
0.0356798
0.0357295
0.0357776
0.0358226
0.0358696
0.035908
0.0352177
0.0352053
0.0351945
0.0351854
0.0351795
0.0351791
0.0351893
0.0351885
0.0351715
0.0351661
0.0351638
0.0351669
0.0351532
0.0351631
0.0351624
0.0351617
0.0351645
0.0351692
0.0351751
0.0351817
0.0351895
0.0351996
0.0352136
0.0352332
0.0352601
0.0352932
0.0353284
0.0353627
0.0353933
0.0354334
0.0354845
0.0355362
0.0355925
0.0356492
0.0357112
0.0357805
0.0358514
0.0359247
0.0359965
0.0360663
0.0361356
0.036207
0.0362815
0.0363585
0.0364368
0.0365155
0.0365937
0.0366706
0.0367459
0.0368192
0.0368903
0.0369591
0.0370255
0.0370895
0.0371508
0.0372101
0.0372656
0.0373229
0.0373701
0.0366154
0.0365986
0.0365945
0.0365909
0.0365965
0.0366083
0.0366049
0.0365785
0.0365652
0.0365458
0.0365456
0.0365469
0.0365526
0.0365396
0.0365356
0.0365438
0.0365433
0.036545
0.0365484
0.0365533
0.0365605
0.036571
0.0365866
0.0366085
0.0366379
0.0366734
0.0367114
0.0367495
0.0367871
0.036834
0.0368907
0.0369496
0.0370138
0.0370799
0.0371509
0.0372293
0.0373114
0.0373969
0.0374829
0.037568
0.0376524
0.0377375
0.0378246
0.0379138
0.0380045
0.0380959
0.0381874
0.0382781
0.0383674
0.0384551
0.0385406
0.0386238
0.0387043
0.0387822
0.0388571
0.0389294
0.0389974
0.0390667
0.0391245
0.038365
0.0383341
0.0383226
0.0383173
0.0383068
0.0382921
0.038281
0.0382609
0.038244
0.0382377
0.0382467
0.0382423
0.0382148
0.03821
0.0382161
0.0382035
0.0382113
0.0382092
0.0382097
0.038213
0.0382195
0.0382307
0.0382479
0.0382722
0.0383043
0.0383425
0.038384
0.0384269
0.0384725
0.0385275
0.0385912
0.0386588
0.0387327
0.0388101
0.0388925
0.0389825
0.0390777
0.0391775
0.0392797
0.0393826
0.0394853
0.0395884
0.0396927
0.0397984
0.0399054
0.0400131
0.040121
0.0402284
0.0403346
0.0404393
0.0405418
0.0406419
0.0407392
0.0408335
0.0409244
0.041012
0.041095
0.0411786
0.0412492
0.0404425
0.0404165
0.0404079
0.0403935
0.0403754
0.0403453
0.0403309
0.0403121
0.0403024
0.0403012
0.0403071
0.0402675
0.0402565
0.0402613
0.0402378
0.0402439
0.0402285
0.0402348
0.0402332
0.0402338
0.0402395
0.0402512
0.0402699
0.0402967
0.0403315
0.0403731
0.0404189
0.0404677
0.0405227
0.0405874
0.0406602
0.0407384
0.0408241
0.0409153
0.0410124
0.0411172
0.0412286
0.0413459
0.0414674
0.0415912
0.0417162
0.0418421
0.0419689
0.0420968
0.0422256
0.0423551
0.0424846
0.0426137
0.0427416
0.0428679
0.0429919
0.0431133
0.0432315
0.0433463
0.0434571
0.043564
0.0436656
0.0437671
0.0438539
0.0430144
0.0429799
0.0429627
0.0429398
0.0429164
0.0428927
0.0428753
0.0428594
0.04285
0.0428492
0.0427983
0.0427818
0.0427702
0.0427512
0.0427506
0.0427223
0.0427243
0.0427121
0.0427075
0.0427118
0.042717
0.0427288
0.0427488
0.0427778
0.0428156
0.0428612
0.0429122
0.0429686
0.0430345
0.0431112
0.0431957
0.0432872
0.0433875
0.0434961
0.043612
0.0437364
0.0438688
0.0440084
0.044154
0.044304
0.0444569
0.0446117
0.0447682
0.044926
0.0450849
0.0452443
0.0454038
0.0455627
0.0457205
0.0458764
0.0460299
0.0461804
0.0463273
0.0464701
0.0466082
0.0467414
0.0468686
0.0469943
0.0471038
0.0462452
0.0461967
0.0461666
0.046133
0.0461006
0.0460695
0.0460407
0.0460129
0.0459859
0.0459564
0.0459192
0.0458951
0.0458711
0.0458462
0.0458303
0.0458119
0.0458133
0.0457829
0.0457858
0.045783
0.0457856
0.0457966
0.0458172
0.045848
0.0458889
0.045939
0.0459966
0.0460624
0.0461417
0.0462333
0.0463334
0.0464424
0.0465615
0.0466925
0.0468334
0.0469845
0.0471453
0.0473153
0.0474935
0.0476783
0.0478684
0.0480625
0.0482598
0.0484596
0.0486613
0.0488643
0.0490679
0.0492713
0.0494737
0.0496744
0.0498724
0.050067
0.0502575
0.0504429
0.0506227
0.050796
0.0509621
0.0511243
0.0512692
0.0503981
0.0503266
0.0502731
0.0502181
0.0501646
0.0501128
0.0500624
0.050013
0.0499642
0.0499156
0.0498681
0.0498262
0.049786
0.0497488
0.0497178
0.0496906
0.0496692
0.0496428
0.0496337
0.0496329
0.049631
0.0496387
0.0496582
0.0496898
0.0497335
0.0497889
0.0498546
0.0499324
0.0500288
0.05014
0.0502615
0.0503947
0.0505407
0.0507019
0.050878
0.0510677
0.0512704
0.0514857
0.0517125
0.0519497
0.0521958
0.0524495
0.0527097
0.0529751
0.0532448
0.0535177
0.0537926
0.0540684
0.0543437
0.0546173
0.0548879
0.0551541
0.0554147
0.0556685
0.0559143
0.0561514
0.0563787
0.0565982
0.0567993
0.0558691
0.0557732
0.0556849
0.055595
0.0555066
0.0554199
0.0553347
0.0552507
0.0551679
0.0550865
0.0550078
0.0549331
0.054862
0.0547957
0.0547356
0.0546811
0.0546324
0.0545897
0.0545601
0.0545405
0.0545287
0.0545308
0.0545436
0.0545719
0.0546164
0.0546768
0.0547528
0.0548471
0.0549675
0.055108
0.0552635
0.0554361
0.055627
0.0558377
0.0560717
0.0563269
0.0566018
0.0568955
0.0572068
0.0575344
0.0578766
0.0582315
0.0585972
0.0589717
0.0593531
0.0597392