/*--------------------------------*- C++ -*----------------------------------*\
| =========                 |                                                 |
| \\      /  F ield         | OpenFOAM: The Open Source CFD Toolbox           |
|  \\    /   O peration     | Version:  2312                                  |
|   \\  /    A nd           | Website:  www.openfoam.com                      |
|    \\/     M anipulation  |                                                 |
\*---------------------------------------------------------------------------*/
FoamFile
{
    version     2.0;
    format      ascii;
    arch        "LSB;label=32;scalar=64";
    class       volScalarField;
    location    "1600";
    object      p;
}
// * * * * * * * * * * * * * * * * * * * * * * * * * * * * * * * * * * * * * //

dimensions      [0 2 -2 0 0 0 0];

internalField   nonuniform List<scalar> 
76025
(
0.000136659
0.000128924
0.00012106
0.000113194
0.000105248
9.73932e-05
8.90177e-05
8.09502e-05
7.27007e-05
6.45429e-05
5.62473e-05
4.78804e-05
3.94589e-05
3.10169e-05
2.26096e-05
1.39662e-05
5.64614e-06
-2.93869e-06
-1.14059e-05
-1.98781e-05
-2.82163e-05
-3.66838e-05
-4.51176e-05
-5.33938e-05
-6.17028e-05
-6.99386e-05
-7.80973e-05
-8.64694e-05
-9.44334e-05
-0.000102625
-0.000110153
-0.000118103
-0.000125917
-0.000133878
-0.00014154
-0.000149068
-0.000156216
-0.000163638
-0.000171106
-0.000178343
-0.000185195
-0.000191942
-0.000199016
-0.000206085
-0.000212672
-0.000219053
-0.000225513
-0.000232302
-0.000238464
-0.000244589
-0.000250736
-0.000256594
-0.000262589
-0.000268835
-0.000274981
-0.000280561
-0.000286912
-0.000293041
-0.000299339
-0.000305529
-0.000311246
-0.000318706
-0.000326487
-0.000334396
-0.000342796
-0.000352021
-0.000362135
-0.000374748
-0.000389302
0.000136066
0.000127977
0.000119817
0.000111613
0.00010332
9.49213e-05
8.64745e-05
7.79994e-05
6.94409e-05
6.08209e-05
5.21249e-05
4.34018e-05
3.46649e-05
2.58839e-05
1.71131e-05
8.34209e-06
-4.47988e-07
-9.20813e-06
-1.80004e-05
-2.66988e-05
-3.54336e-05
-4.41006e-05
-5.273e-05
-6.12965e-05
-6.98354e-05
-7.83433e-05
-8.67838e-05
-9.50945e-05
-0.000103309
-0.000111504
-0.00011957
-0.000127747
-0.000135774
-0.000143648
-0.000151461
-0.000159132
-0.000166742
-0.000174248
-0.000181638
-0.000188964
-0.000196081
-0.000203137
-0.000210107
-0.000216947
-0.000223673
-0.000230295
-0.000236874
-0.000243392
-0.000249771
-0.000256096
-0.000262377
-0.000268542
-0.000274718
-0.000280949
-0.000287136
-0.000293304
-0.000299703
-0.000306092
-0.000312539
-0.000319077
-0.000325863
-0.000333534
-0.000341592
-0.000350083
-0.000359326
-0.000369703
-0.000381155
-0.000394434
-0.000409302
0.000135678
0.000127218
0.000118666
0.000110062
0.000101378
9.26383e-05
8.38349e-05
7.49606e-05
6.6023e-05
5.70236e-05
4.79852e-05
3.89265e-05
2.98466e-05
2.07517e-05
1.16614e-05
2.55769e-06
-6.53875e-06
-1.56219e-05
-2.46831e-05
-3.37155e-05
-4.27089e-05
-5.16448e-05
-6.0534e-05
-6.93694e-05
-7.81489e-05
-8.68671e-05
-9.54884e-05
-0.000104021
-0.000112485
-0.000120878
-0.000129204
-0.000137453
-0.000145582
-0.000153612
-0.000161561
-0.000169394
-0.000177108
-0.000184689
-0.000192173
-0.000199562
-0.000206814
-0.000213945
-0.000220974
-0.000227923
-0.000234779
-0.000241526
-0.000248183
-0.000254777
-0.000261298
-0.000267736
-0.000274114
-0.000280438
-0.000286752
-0.000293095
-0.000299465
-0.000305868
-0.000312378
-0.000318999
-0.00032576
-0.000332743
-0.000340067
-0.000347973
-0.000356468
-0.000365615
-0.000375619
-0.000386751
-0.000399183
-0.000413443
-0.000429211
0.00013503
0.000126162
0.000117196
0.000108187
9.91194e-05
8.99825e-05
8.07742e-05
7.15028e-05
6.21818e-05
5.28194e-05
4.34244e-05
3.40043e-05
2.45659e-05
1.51181e-05
5.6703e-06
-3.77244e-06
-1.31985e-05
-2.26004e-05
-3.19698e-05
-4.12993e-05
-5.05784e-05
-5.98012e-05
-6.89634e-05
-7.80581e-05
-8.70788e-05
-9.60204e-05
-0.000104875
-0.000113641
-0.000122317
-0.0001309
-0.000139388
-0.000147777
-0.000156068
-0.000164258
-0.000172335
-0.000180283
-0.000188099
-0.000195791
-0.00020337
-0.000210835
-0.000218177
-0.0002254
-0.000232519
-0.000239543
-0.000246467
-0.000253291
-0.000260029
-0.000266699
-0.000273301
-0.000279835
-0.000286322
-0.000292778
-0.000299228
-0.000305701
-0.000312218
-0.000318795
-0.000325484
-0.000332323
-0.000339355
-0.000346659
-0.000354346
-0.000362577
-0.000371455
-0.00038108
-0.00039164
-0.00040339
-0.000416575
-0.000431633
-0.000448368
0.000133937
0.000124643
0.000115251
0.000105823
9.63392e-05
8.67865e-05
7.71669e-05
6.74911e-05
5.77706e-05
4.80143e-05
3.82297e-05
2.84253e-05
1.86107e-05
8.79506e-06
-1.01208e-06
-1.08015e-05
-2.05648e-05
-3.02932e-05
-3.99783e-05
-4.96112e-05
-5.9184e-05
-6.86894e-05
-7.81203e-05
-8.74703e-05
-9.67336e-05
-0.000105905
-0.000114979
-0.000123951
-0.000132816
-0.000141575
-0.000150227
-0.00015877
-0.000167204
-0.000175521
-0.000183708
-0.000191757
-0.000199669
-0.000207452
-0.000215111
-0.000222647
-0.000230062
-0.00023736
-0.000244548
-0.000251634
-0.000258622
-0.000265517
-0.00027233
-0.000279072
-0.000285751
-0.000292376
-0.000298963
-0.000305528
-0.000312095
-0.00031869
-0.000325339
-0.00033207
-0.000338924
-0.000345949
-0.000353198
-0.00036075
-0.000368706
-0.000377197
-0.000386348
-0.000396295
-0.00040723
-0.000419409
-0.000433113
-0.000448772
-0.000466291
0.000132409
0.000122668
0.00011283
0.000102958
9.30355e-05
8.30481e-05
7.29983e-05
6.28968e-05
5.27556e-05
4.25848e-05
3.23935e-05
2.21909e-05
1.19872e-05
1.79226e-06
-8.38417e-06
-1.85325e-05
-2.86434e-05
-3.87076e-05
-4.87159e-05
-5.86594e-05
-6.85297e-05
-7.83187e-05
-8.80194e-05
-9.76249e-05
-0.000107129
-0.000116527
-0.000125813
-0.000134983
-0.000144033
-0.000152964
-0.000161773
-0.000170459
-0.000179022
-0.000187455
-0.000195743
-0.000203883
-0.00021188
-0.00021974
-0.000227467
-0.000235066
-0.000242541
-0.000249897
-0.000257141
-0.00026428
-0.000271322
-0.000278274
-0.000285147
-0.000291951
-0.000298698
-0.000305399
-0.00031207
-0.000318729
-0.000325398
-0.000332101
-0.000338867
-0.000345725
-0.000352715
-0.000359885
-0.000367291
-0.000375006
-0.000383123
-0.000391758
-0.000401043
-0.000411132
-0.000422232
-0.00043461
-0.000448589
-0.000464634
-0.000482871
0.000130387
0.000120174
0.000109865
9.95271e-05
8.9142e-05
7.86968e-05
6.81937e-05
5.76443e-05
4.7062e-05
3.64581e-05
2.58424e-05
1.52247e-05
4.61564e-06
-5.97429e-06
-1.65345e-05
-2.70545e-05
-3.75243e-05
-4.79337e-05
-5.82731e-05
-6.85331e-05
-7.87048e-05
-8.87801e-05
-9.87513e-05
-0.000108611
-0.000118354
-0.000127974
-0.000137466
-0.000146827
-0.000156054
-0.000165145
-0.000174099
-0.000182916
-0.000191596
-0.000200129
-0.000208505
-0.000216721
-0.000224785
-0.000232704
-0.000240484
-0.000248131
-0.00025565
-0.000263047
-0.000270331
-0.00027751
-0.000284592
-0.000291588
-0.000298507
-0.000305362
-0.000312166
-0.000318931
-0.000325673
-0.000332411
-0.000339165
-0.000345958
-0.000352818
-0.000359773
-0.000366859
-0.00037412
-0.000381606
-0.000389384
-0.000397538
-0.000406174
-0.000415424
-0.000425453
-0.000436481
-0.000448793
-0.000462755
-0.000478884
-0.000497479
0.000127779
0.000117068
0.000106263
9.54331e-05
8.45608e-05
7.36333e-05
6.26533e-05
5.16334e-05
4.05884e-05
2.95304e-05
1.84702e-05
7.41844e-06
-3.61356e-06
-1.46142e-05
-2.55721e-05
-3.6476e-05
-4.73149e-05
-5.80781e-05
-6.87552e-05
-7.93365e-05
-8.98127e-05
-0.000100175
-0.000110415
-0.000120527
-0.000130503
-0.000140339
-0.000150029
-0.00015957
-0.000168961
-0.000178198
-0.000187283
-0.000196215
-0.000204995
-0.000213611
-0.000222055
-0.000230328
-0.000238441
-0.000246402
-0.000254217
-0.000261894
-0.000269439
-0.00027686
-0.000284167
-0.00029137
-0.000298477
-0.000305502
-0.000312454
-0.000319348
-0.000326195
-0.000333011
-0.00033981
-0.00034661
-0.00035343
-0.000360291
-0.000367215
-0.000374227
-0.000381356
-0.000388638
-0.000396115
-0.000403843
-0.000411896
-0.00042037
-0.000429397
-0.000439145
-0.000449844
-0.00046179
-0.000475378
-0.000491184
-0.000509739
0.000124493
0.000113256
0.000101926
9.05767e-05
7.91902e-05
6.77541e-05
5.6272e-05
4.47574e-05
3.32263e-05
2.16921e-05
1.01665e-05
-1.33878e-06
-1.28114e-05
-2.42387e-05
-3.56084e-05
-4.69082e-05
-5.81265e-05
-6.92517e-05
-8.02728e-05
-9.11793e-05
-0.000101961
-0.00011261
-0.000123117
-0.000133475
-0.000143678
-0.00015372
-0.000163597
-0.000173306
-0.000182845
-0.000192213
-0.000201412
-0.000210441
-0.0002193
-0.000227977
-0.000236467
-0.000244777
-0.000252918
-0.000260899
-0.000268728
-0.000276413
-0.000283964
-0.00029139
-0.000298702
-0.000305911
-0.000313028
-0.000320065
-0.000327036
-0.000333953
-0.00034083
-0.000347681
-0.00035452
-0.000361363
-0.000368225
-0.000375122
-0.000382071
-0.000389089
-0.000396197
-0.000403419
-0.000410787
-0.000418344
-0.000426152
-0.000434299
-0.000442909
-0.000452147
-0.000462247
-0.000473509
-0.000486336
-0.000501284
-0.000518541
0.000120421
0.000108627
9.67415e-05
8.48424e-05
7.29124e-05
6.09397e-05
4.89282e-05
3.68927e-05
2.48506e-05
1.28167e-05
8.03674e-07
-1.11754e-05
-2.31071e-05
-3.49777e-05
-4.67738e-05
-5.84822e-05
-7.00901e-05
-8.15853e-05
-9.29559e-05
-0.000104191
-0.00011528
-0.000126213
-0.000136982
-0.00014758
-0.000157999
-0.000168236
-0.000178286
-0.000188146
-0.000197816
-0.000207296
-0.000216587
-0.000225691
-0.000234604
-0.000243316
-0.000251827
-0.000260149
-0.000268292
-0.000276269
-0.000284087
-0.000291758
-0.000299292
-0.000306702
-0.000313998
-0.000321193
-0.000328301
-0.000335333
-0.000342305
-0.000349228
-0.000356116
-0.000362982
-0.000369838
-0.000376696
-0.000383567
-0.000390461
-0.000397387
-0.000404354
-0.000411369
-0.000418447
-0.000425605
-0.000432874
-0.000440301
-0.000447959
-0.00045596
-0.000464461
-0.00047369
-0.000483949
-0.000495669
-0.000509359
-0.000525197
0.000115431
0.000103047
9.05732e-05
7.8092e-05
6.55871e-05
5.3047e-05
4.04767e-05
2.78922e-05
1.53124e-05
2.75345e-06
-9.77037e-06
-2.22449e-05
-3.46552e-05
-4.69865e-05
-5.9224e-05
-7.13535e-05
-8.33611e-05
-9.52336e-05
-0.000106958
-0.000118523
-0.000129918
-0.000141132
-0.000152156
-0.000162984
-0.000173608
-0.000184025
-0.00019423
-0.000204222
-0.000214002
-0.000223569
-0.000232926
-0.000242078
-0.000251015
-0.000259732
-0.000268236
-0.00027654
-0.000284658
-0.000292601
-0.000300381
-0.00030801
-0.000315501
-0.000322867
-0.000330123
-0.000337281
-0.000344356
-0.000351362
-0.00035831
-0.000365215
-0.000372089
-0.000378941
-0.000385783
-0.000392621
-0.00039946
-0.000406304
-0.000413153
-0.000420005
-0.00042686
-0.000433716
-0.000440578
-0.000447459
-0.000454387
-0.000461414
-0.000468629
-0.00047617
-0.000484253
-0.000493173
-0.000503415
-0.000515432
-0.000530279
0.000109367
9.63575e-05
8.32596e-05
7.01611e-05
5.70468e-05
4.39063e-05
3.07452e-05
1.75812e-05
4.43476e-06
-8.67628e-06
-2.17361e-05
-3.4729e-05
-4.76388e-05
-6.04489e-05
-7.31434e-05
-8.57067e-05
-9.81239e-05
-0.00011038
-0.000122463
-0.000134358
-0.000146055
-0.000157544
-0.000168814
-0.000179859
-0.000190673
-0.000201251
-0.00021159
-0.00022169
-0.000231552
-0.000241178
-0.000250573
-0.000259738
-0.000268665
-0.000277352
-0.000285814
-0.000294067
-0.000302124
-0.000309999
-0.000317706
-0.00032526
-0.000332675
-0.000339967
-0.00034715
-0.00035424
-0.000361251
-0.000368197
-0.000375091
-0.000381944
-0.000388767
-0.000395568
-0.000402353
-0.000409126
-0.000415886
-0.000422629
-0.000429349
-0.000436035
-0.000442675
-0.000449254
-0.000455759
-0.000462182
-0.000468524
-0.000474808
-0.000481085
-0.000487458
-0.000494119
-0.000501349
-0.000509698
-0.000519578
-0.000533402
0.000102041
8.83666e-05
7.46057e-05
6.08512e-05
4.709e-05
3.33126e-05
1.95259e-05
5.74913e-06
-7.99543e-06
-2.1688e-05
-3.53112e-05
-4.88474e-05
-6.22787e-05
-7.55871e-05
-8.8755e-05
-0.000101765
-0.000114602
-0.000127249
-0.000139692
-0.000151917
-0.000163912
-0.000175667
-0.000187171
-0.000198418
-0.000209401
-0.000220117
-0.000230565
-0.000240743
-0.000250656
-0.000260307
-0.000269702
-0.000278839
-0.000287712
-0.000296329
-0.000304707
-0.000312864
-0.000320816
-0.00032858
-0.000336171
-0.000343606
-0.000350901
-0.000358075
-0.000365143
-0.000372121
-0.000379025
-0.000385867
-0.000392661
-0.000399416
-0.000406141
-0.000412842
-0.000419521
-0.000426179
-0.000432812
-0.00043941
-0.000445962
-0.000452447
-0.000458844
-0.000465122
-0.000471249
-0.000477188
-0.000482906
-0.000488378
-0.000493606
-0.000498635
-0.000503611
-0.000508785
-0.000514814
-0.000522191
-0.000533524
9.32192e-05
7.88373e-05
6.43702e-05
4.99171e-05
3.54671e-05
2.10126e-05
6.56167e-06
-7.86481e-06
-2.22424e-05
-3.65493e-05
-5.07659e-05
-6.48728e-05
-7.88502e-05
-9.26781e-05
-0.000106337
-0.000119809
-0.000133075
-0.000146119
-0.000158925
-0.000171477
-0.000183764
-0.000195774
-0.000207497
-0.000218926
-0.000230055
-0.000240881
-0.000251403
-0.000261624
-0.000271547
-0.000281179
-0.000290525
-0.00029958
-0.000308345
-0.000316836
-0.000325074
-0.000333078
-0.000340867
-0.00034846
-0.000355876
-0.000363133
-0.000370252
-0.000377249
-0.000384144
-0.000390953
-0.000397691
-0.000404371
-0.000411005
-0.000417603
-0.000424172
-0.000430716
-0.000437238
-0.000443734
-0.0004502
-0.000456624
-0.000462988
-0.000469267
-0.000475428
-0.000481424
-0.0004872
-0.000492687
-0.000497805
-0.000502473
-0.000506614
-0.00051019
-0.000513259
-0.00051598
-0.000519086
-0.000523236
-0.000532636
8.2602e-05
6.74658e-05
5.22445e-05
3.7044e-05
2.18578e-05
6.68024e-06
-8.47914e-06
-2.35975e-05
-3.86479e-05
-5.36064e-05
-6.84509e-05
-8.31598e-05
-9.77111e-05
-0.000112083
-0.000126253
-0.000140202
-0.000153909
-0.000167356
-0.000180526
-0.000193402
-0.000205971
-0.000218221
-0.000230141
-0.000241725
-0.000252966
-0.000263863
-0.000274415
-0.000284628
-0.000294505
-0.000304056
-0.000313282
-0.000322182
-0.000330765
-0.000339056
-0.000347077
-0.000354851
-0.000362398
-0.000369742
-0.000376904
-0.000383906
-0.00039077
-0.000397515
-0.000404161
-0.000410726
-0.000417223
-0.000423668
-0.000430072
-0.000436445
-0.000442794
-0.000449125
-0.00045544
-0.000461738
-0.000468012
-0.00047425
-0.000480435
-0.000486534
-0.000492505
-0.000498288
-0.000503801
-0.000508941
-0.000513577
-0.000517558
-0.000520713
-0.000522891
-0.000524003
-0.000524012
-0.0005235
-0.00052242
-0.000523099
6.9783e-05
5.38389e-05
3.78074e-05
2.18026e-05
5.82429e-06
-1.01301e-05
-2.60496e-05
-4.19089e-05
-5.76787e-05
-7.33318e-05
-8.88439e-05
-0.00010419
-0.000119347
-0.000134288
-0.000148991
-0.000163431
-0.000177589
-0.000191441
-0.00020497
-0.000218158
-0.00023099
-0.000243452
-0.000255534
-0.000267228
-0.00027853
-0.000289438
-0.000299954
-0.000310082
-0.000319833
-0.000329212
-0.00033822
-0.000346866
-0.00035517
-0.00036316
-0.000370862
-0.000378301
-0.000385502
-0.000392492
-0.000399297
-0.000405943
-0.000412453
-0.000418849
-0.000425152
-0.000431381
-0.000437552
-0.00044368
-0.000449778
-0.000455857
-0.000461926
-0.000467993
-0.000474062
-0.000480136
-0.000486209
-0.000492274
-0.00049831
-0.000504287
-0.000510157
-0.000515847
-0.000521257
-0.000526252
-0.000530651
-0.000534236
-0.000536736
-0.000537844
-0.000537232
-0.00053461
-0.000530436
-0.000524648
-0.000523025
5.41631e-05
3.73479e-05
2.04408e-05
3.56546e-06
-1.32691e-05
-3.00612e-05
-4.67979e-05
-6.34515e-05
-7.99893e-05
-9.63811e-05
-0.000112599
-0.000128615
-0.000144402
-0.000159932
-0.000175178
-0.000190114
-0.000204716
-0.00021896
-0.000232825
-0.000246292
-0.000259344
-0.000271967
-0.00028415
-0.000295885
-0.000307167
-0.000317997
-0.000328377
-0.000338316
-0.000347823
-0.000356905
-0.000365569
-0.000373833
-0.000381728
-0.000389283
-0.000396528
-0.000403495
-0.000410214
-0.000416718
-0.000423037
-0.000429201
-0.000435237
-0.00044117
-0.000447025
-0.00045282
-0.000458574
-0.000464303
-0.000470022
-0.000475743
-0.000481479
-0.00048724
-0.000493035
-0.000498871
-0.000504748
-0.000510664
-0.000516606
-0.000522546
-0.000528439
-0.000534212
-0.000539759
-0.000544932
-0.000549522
-0.000553247
-0.000555711
-0.000556376
-0.000554551
-0.000549609
-0.00054154
-0.000530468
-0.00052173
3.48481e-05
1.70989e-05
-7.47214e-07
-1.85542e-05
-3.63012e-05
-5.39817e-05
-7.15808e-05
-8.90676e-05
-0.000106406
-0.000123562
-0.000140505
-0.000157202
-0.000173623
-0.000189736
-0.000205511
-0.00022092
-0.000235934
-0.000250528
-0.000264677
-0.000278362
-0.000291562
-0.000304263
-0.000316453
-0.000328123
-0.000339272
-0.000349898
-0.000360008
-0.000369613
-0.000378723
-0.000387347
-0.000395503
-0.00040322
-0.000410534
-0.00041748
-0.000424096
-0.00043042
-0.000436491
-0.00044235
-0.000448032
-0.000453573
-0.000459005
-0.000464357
-0.000469654
-0.000474918
-0.000480169
-0.000485423
-0.000490697
-0.000496006
-0.000501363
-0.000506784
-0.000512283
-0.000517873
-0.000523564
-0.000529364
-0.000535272
-0.000541277
-0.000547351
-0.000553445
-0.000559475
-0.000565307
-0.000570713
-0.000575339
-0.000578628
-0.000579733
-0.00057751
-0.000570862
-0.000559317
-0.000543761
-0.00052828
1.07934e-05
-7.92748e-06
-2.67508e-05
-4.5521e-05
-6.42051e-05
-8.27925e-05
-0.000101266
-0.000119592
-0.00013773
-0.000155644
-0.000173297
-0.000190654
-0.00020768
-0.00022434
-0.0002406
-0.000256427
-0.000271791
-0.000286662
-0.000301013
-0.000314822
-0.000328066
-0.000340729
-0.000352799
-0.000364267
-0.000375131
-0.000385393
-0.000395062
-0.000404151
-0.000412672
-0.000420642
-0.00042809
-0.000435055
-0.000441581
-0.000447713
-0.000453497
-0.000458985
-0.000464224
-0.000469263
-0.000474147
-0.000478919
-0.000483616
-0.000488269
-0.000492906
-0.00049755
-0.00050222
-0.000506933
-0.000511705
-0.000516552
-0.00052149
-0.000526539
-0.000531718
-0.00053705
-0.000542557
-0.000548266
-0.000554203
-0.000560395
-0.000566857
-0.00057359
-0.00058055
-0.000587627
-0.000594572
-0.000600923
-0.000605889
-0.000608216
-0.000606234
-0.00059846
-0.000584796
-0.000566577
-0.000547279
-1.86431e-05
-3.83373e-05
-5.81414e-05
-7.78721e-05
-9.74859e-05
-0.000116969
-0.000136301
-0.000155446
-0.00017436
-0.000193
-0.000211328
-0.000229303
-0.000246886
-0.000264037
-0.000280719
-0.000296894
-0.000312528
-0.000327588
-0.000342043
-0.000355866
-0.000369034
-0.000381528
-0.000393334
-0.000404444
-0.000414856
-0.000424574
-0.00043361
-0.000441979
-0.000449698
-0.000456795
-0.000463312
-0.000469298
-0.000474807
-0.000479898
-0.000484631
-0.000489071
-0.000493278
-0.000497314
-0.000501234
-0.000505088
-0.000508919
-0.000512762
-0.000516645
-0.000520589
-0.000524612
-0.000528726
-0.000532947
-0.000537288
-0.000541767
-0.000546407
-0.000551233
-0.000556282
-0.000561598
-0.000567244
-0.000573295
-0.000579836
-0.000586942
-0.000594669
-0.000603013
-0.000611847
-0.000620834
-0.00062928
-0.000636023
-0.000639379
-0.00063765
-0.000629888
-0.000616136
-0.000597387
-0.000576753
-5.30724e-05
-7.37452e-05
-9.45346e-05
-0.000115227
-0.000135771
-0.000156149
-0.000176338
-0.000196297
-0.000215978
-0.000235335
-0.000254323
-0.000272896
-0.000291012
-0.000308624
-0.000325691
-0.00034217
-0.000358021
-0.000373206
-0.000387691
-0.000401444
-0.000414438
-0.000426652
-0.000438068
-0.000448678
-0.000458479
-0.000467479
-0.000475691
-0.000483132
-0.00048983
-0.000495823
-0.000501168
-0.000505927
-0.000510169
-0.00051397
-0.000517408
-0.000520566
-0.000523524
-0.000526356
-0.000529135
-0.000531918
-0.000534755
-0.000537682
-0.000540726
-0.000543902
-0.00054722
-0.000550687
-0.000554311
-0.000558103
-0.000562081
-0.000566274
-0.000570721
-0.000575477
-0.000580623
-0.000586267
-0.00059255
-0.000599618
-0.0006076
-0.000616555
-0.000626413
-0.000636898
-0.000647436
-0.000656981
-0.000664257
-0.000667959
-0.000666952
-0.000660253
-0.000647525
-0.000630283
-0.000611627
-9.09524e-05
-0.000112698
-0.000134555
-0.000156289
-0.000177843
-0.000199195
-0.000220317
-0.000241165
-0.000261685
-0.000281825
-0.000301534
-0.000320763
-0.00033946
-0.000357575
-0.000375059
-0.000391864
-0.000407944
-0.000423254
-0.000437754
-0.000451407
-0.000464179
-0.000476043
-0.000486981
-0.000496981
-0.00050604
-0.000514167
-0.000521376
-0.00052769
-0.000533146
-0.000537797
-0.000541715
-0.000544977
-0.000547673
-0.000549902
-0.000551768
-0.000553377
-0.000554835
-0.000556239
-0.000557677
-0.000559224
-0.000560935
-0.000562846
-0.000564976
-0.00056733
-0.000569902
-0.000572683
-0.000575672
-0.000578881
-0.000582335
-0.000586078
-0.000590169
-0.000594692
-0.000599767
-0.000605534
-0.000612159
-0.000619774
-0.000628447
-0.000638118
-0.000648544
-0.000659207
-0.000669362
-0.000678268
-0.000685222
-0.000689145
-0.000688751
-0.000683041
-0.000672131
-0.000658251
-0.000645207
-0.000130992
-0.000153977
-0.000177065
-0.000200004
-0.000222731
-0.000245218
-0.000267434
-0.000289328
-0.000310841
-0.000331913
-0.000352488
-0.00037251
-0.000391919
-0.000410658
-0.000428671
-0.000445901
-0.000462294
-0.000477797
-0.000492362
-0.000505942
-0.000518499
-0.000529998
-0.000540413
-0.000549728
-0.000557938
-0.000565047
-0.000571073
-0.000576044
-0.000580009
-0.000583038
-0.000585218
-0.000586651
-0.000587453
-0.000587754
-0.000587693
-0.000587412
-0.000587053
-0.000586749
-0.000586614
-0.000586743
-0.000587199
-0.000588017
-0.000589198
-0.000590724
-0.000592562
-0.000594682
-0.000597075
-0.000599754
-0.00060276
-0.000606152
-0.000609998
-0.000614399
-0.000619474
-0.00062531
-0.000631943
-0.000639333
-0.000647372
-0.000655909
-0.000664773
-0.00067372
-0.000682389
-0.000690307
-0.000696677
-0.000700284
-0.000699761
-0.000694675
-0.000686254
-0.000677883
-0.000673331
-0.000170567
-0.000195153
-0.000219776
-0.000244212
-0.000268398
-0.000292301
-0.000315883
-0.000339088
-0.000361852
-0.000384109
-0.000405794
-0.000426844
-0.000447191
-0.000466769
-0.000485512
-0.000503355
-0.000520232
-0.000536082
-0.000550846
-0.000564467
-0.000576894
-0.000588082
-0.000597994
-0.000606606
-0.000613908
-0.000619903
-0.00062461
-0.000628062
-0.000630321
-0.000631469
-0.000631612
-0.000630879
-0.000629422
-0.00062741
-0.000625029
-0.000622471
-0.000619929
-0.000617582
-0.00061559
-0.000614078
-0.000613127
-0.000612773
-0.000613005
-0.000613781
-0.000615046
-0.000616759
-0.000618899
-0.000621473
-0.000624467
-0.000627828
-0.000631452
-0.000635329
-0.000639593
-0.000644391
-0.00064961
-0.000655028
-0.00066057
-0.000666316
-0.00067263
-0.000679836
-0.000687568
-0.000694913
-0.000700307
-0.000702434
-0.000700829
-0.000696186
-0.000691048
-0.000689302
-0.000693209
-0.000212596
-0.000238944
-0.000265383
-0.000291602
-0.000317539
-0.000343162
-0.000368424
-0.00039326
-0.000417597
-0.00044136
-0.000464474
-0.000486865
-0.000508455
-0.000529168
-0.000548926
-0.000567651
-0.000585266
-0.000601697
-0.00061687
-0.000630713
-0.000643158
-0.000654139
-0.000663599
-0.000671491
-0.000677784
-0.000682468
-0.000685559
-0.000687103
-0.000687174
-0.000685875
-0.00068334
-0.000679734
-0.000675256
-0.000670132
-0.000664617
-0.000658979
-0.000653496
-0.000648434
-0.000644036
-0.000640496
-0.000637944
-0.000636423
-0.000635893
-0.000636242
-0.000637332
-0.000639053
-0.000641363
-0.000644253
-0.000647616
-0.000651095
-0.000654061
-0.000656105
-0.000657639
-0.00065952
-0.000661752
-0.000664011
-0.000666862
-0.000670598
-0.000675598
-0.000682365
-0.000689545
-0.000695132
-0.000698095
-0.000698252
-0.000695886
-0.000692353
-0.000690474
-0.00069341
-0.000702305
-0.000245083
-0.000274074
-0.000302806
-0.000331246
-0.000359367
-0.000387119
-0.000414449
-0.000441288
-0.000467557
-0.000493172
-0.000518051
-0.000542108
-0.000565256
-0.000587406
-0.000608468
-0.000628351
-0.000646965
-0.000664223
-0.000680037
-0.00069432
-0.000706984
-0.000717948
-0.000727145
-0.000734529
-0.00074006
-0.000743706
-0.000745457
-0.00074533
-0.00074338
-0.000739711
-0.000734472
-0.000727869
-0.00072016
-0.000711657
-0.000702722
-0.000693759
-0.000685194
-0.000677456
-0.00067093
-0.000665915
-0.000662563
-0.000660826
-0.00066043
-0.000660915
-0.000661762
-0.000662641
-0.000663605
-0.000665065
-0.000667408
-0.000670344
-0.000672402
-0.000672004
-0.000669824
-0.000668202
-0.00066777
-0.000667779
-0.000669586
-0.00067387
-0.000679206
-0.000684197
-0.000688423
-0.000691383
-0.000692498
-0.000691703
-0.000689443
-0.000687025
-0.000686785
-0.000691397
-0.000701705
-0.000301597
-0.000332764
-0.000364176
-0.000395269
-0.000426014
-0.000456384
-0.000486312
-0.000515717
-0.000544504
-0.000572571
-0.000599819
-0.000626148
-0.000651454
-0.000675631
-0.00069857
-0.000720165
-0.00074031
-0.000758896
-0.000775809
-0.000790895
-0.000803945
-0.000814752
-0.000823178
-0.00082916
-0.000832715
-0.000833887
-0.000832702
-0.000829179
-0.000823364
-0.000815368
-0.000805375
-0.000793645
-0.000780525
-0.000766442
-0.000751906
-0.000737502
-0.00072387
-0.000711669
-0.000701519
-0.000693917
-0.000689127
-0.000687046
-0.000687082
-0.000688138
-0.000688795
-0.000687904
-0.000685327
-0.000682036
-0.000679657
-0.000679344
-0.000679929
-0.000678373
-0.000674515
-0.000671691
-0.000671841
-0.000673701
-0.000675687
-0.00067783
-0.000680503
-0.000683182
-0.000685229
-0.000686191
-0.000685914
-0.00068438
-0.000681868
-0.00067947
-0.00067944
-0.00068423
-0.000694323
-0.000322176
-0.000356178
-0.00038935
-0.000422436
-0.000455331
-0.000487813
-0.000519786
-0.000551183
-0.000581904
-0.000611839
-0.000640876
-0.000668906
-0.000695812
-0.000721472
-0.000745763
-0.000768567
-0.000789782
-0.00080935
-0.000827287
-0.000843625
-0.000858167
-0.000870486
-0.000880195
-0.000887054
-0.000890963
-0.00089192
-0.000889926
-0.000884958
-0.000876999
-0.000866087
-0.000852346
-0.000836003
-0.000817419
-0.000797113
-0.000775794
-0.000754371
-0.000733943
-0.000715739
-0.000701007
-0.000690826
-0.000685853
-0.000686019
-0.000690259
-0.000696394
-0.000701449
-0.000702814
-0.000699712
-0.00069332
-0.000686443
-0.000682226
-0.000681457
-0.000682099
-0.000682003
-0.00068069
-0.00067928
-0.000678714
-0.000678861
-0.000679495
-0.000680382
-0.000681208
-0.000681508
-0.000680741
-0.000678617
-0.000675181
-0.000671005
-0.000667549
-0.000667166
-0.000671756
-0.000681242
-0.000445674
-0.000482749
-0.000520004
-0.000556561
-0.000592455
-0.000627868
-0.000662792
-0.00069709
-0.000730608
-0.00076321
-0.000794773
-0.000825164
-0.000854236
-0.000881825
-0.000907749
-0.000931802
-0.000953747
-0.000973296
-0.000990094
-0.00100381
-0.00101444
-0.00102227
-0.0010275
-0.00103007
-0.00102965
-0.00102579
-0.00101815
-0.00100655
-0.000991043
-0.000971742
-0.000948877
-0.000922792
-0.000894
-0.000863216
-0.000831377
-0.000799641
-0.000769343
-0.000741925
-0.000718806
-0.000701199
-0.000689892
-0.000685011
-0.000685832
-0.00069064
-0.000696772
-0.000701404
-0.000702964
-0.000701187
-0.000696886
-0.00069172
-0.000687678
-0.000685428
-0.000683955
-0.000682772
-0.000681878
-0.000681292
-0.000680901
-0.000680628
-0.000680322
-0.000679742
-0.000678576
-0.000676439
-0.000672855
-0.000667693
-0.000661882
-0.000657483
-0.00065649
-0.000659614
-0.000667549
0.000185129
0.000191745
0.000198546
0.000205659
0.000213158
0.000221085
0.000229457
0.000238082
0.000246924
0.000256205
0.000265881
0.000275838
0.000285798
0.000296558
0.000306572
0.00031713
0.000326871
0.000337071
0.000346736
0.000356068
0.000365772
0.000373642
0.000381022
0.000387372
0.000392816
0.000397222
0.000400004
0.000401624
0.000402146
0.000401036
0.000398295
0.00039432
0.000389247
0.00038312
0.000375366
0.000366741
0.000357304
0.000346946
0.000336046
0.000324811
0.000313014
0.000301038
0.00028937
0.000277987
0.000265733
0.000254454
0.000242856
0.000231954
0.000221434
0.000211337
0.000201799
0.000192768
0.000184308
0.000176176
0.00016877
0.000161396
0.000154774
0.00014868
0.000143151
0.000187026
0.000193806
0.000200961
0.000208467
0.000216347
0.000224615
0.000233276
0.000242288
0.000251653
0.000261381
0.000271441
0.00028179
0.000292336
0.00030314
0.000313992
0.000324822
0.000335562
0.000346122
0.000356454
0.00036622
0.000375726
0.000384397
0.000392162
0.00039892
0.000404587
0.00040906
0.000412196
0.000413849
0.000414281
0.00041313
0.00041029
0.000406201
0.000400875
0.000394214
0.000386249
0.000377211
0.000367284
0.000356543
0.000345156
0.000333273
0.000320982
0.000308596
0.000296183
0.000283673
0.000271307
0.000259203
0.000247414
0.000236031
0.000225034
0.000214479
0.000204452
0.000194961
0.00018592
0.000177444
0.000169456
0.000162042
0.000155168
0.0001488
0.000142895
0.000188741
0.000195831
0.000203294
0.000211151
0.000219408
0.000228069
0.000237125
0.000246564
0.000256389
0.000266595
0.000277133
0.000287955
0.000299021
0.000310285
0.00032165
0.000333095
0.000344459
0.00035562
0.000366433
0.000376772
0.000386601
0.000395713
0.000403932
0.000411075
0.000417062
0.000421753
0.000425064
0.00042688
0.000427245
0.000426011
0.00042315
0.000418879
0.000413185
0.000406118
0.000397762
0.000388302
0.000377864
0.000366627
0.00035469
0.00034225
0.000329442
0.000316376
0.000303202
0.000290112
0.000277174
0.000264528
0.000252192
0.000240231
0.000228711
0.000217677
0.00020718
0.000197212
0.000187781
0.000178893
0.000170596
0.000162868
0.000155673
0.000148999
0.000142819
0.000190221
0.000197645
0.00020546
0.000213682
0.000222324
0.000231393
0.000240883
0.000250788
0.0002611
0.000271805
0.000282866
0.000294239
0.00030588
0.000317721
0.000329667
0.000341675
0.000353592
0.000365325
0.000376706
0.000387645
0.000397999
0.00040755
0.000416191
0.000423727
0.000430054
0.000435019
0.000438513
0.000440453
0.00044081
0.000439512
0.000436557
0.000432071
0.000426058
0.000418632
0.000409857
0.000399919
0.000388949
0.000377122
0.000364576
0.000351501
0.000338042
0.000324321
0.000310515
0.000296805
0.00028323
0.000269934
0.000256971
0.000244415
0.000232339
0.000220787
0.000209789
0.000199361
0.000189517
0.000180255
0.000171581
0.000163482
0.000155944
0.000148956
0.000142502
0.000191511
0.000199288
0.000207477
0.000216092
0.000225147
0.000234649
0.000244598
0.000254989
0.000265811
0.000277044
0.000288656
0.000300605
0.000312837
0.000325282
0.000337853
0.000350463
0.000362991
0.000375328
0.000387322
0.00039885
0.00040975
0.00041981
0.000428905
0.000436855
0.000443528
0.000448774
0.000452474
0.000454529
0.000454902
0.000453545
0.000450458
0.000445746
0.000439429
0.000431623
0.000422407
0.000411956
0.000400419
0.000387967
0.000374768
0.000361005
0.000346844
0.00033244
0.000317955
0.000303537
0.000289278
0.000275297
0.000261685
0.000248515
0.000235851
0.000223737
0.000212205
0.000201277
0.000190962
0.000181264
0.000172178
0.000163699
0.000155813