/*--------------------------------*- C++ -*----------------------------------*\
| =========                 |                                                 |
| \\      /  F ield         | OpenFOAM: The Open Source CFD Toolbox           |
|  \\    /   O peration     | Version:  2312                                  |
|   \\  /    A nd           | Website:  www.openfoam.com                      |
|    \\/     M anipulation  |                                                 |
\*---------------------------------------------------------------------------*/
FoamFile
{
    version     2.0;
    format      ascii;
    arch        "LSB;label=32;scalar=64";
    class       surfaceScalarField;
    location    "1600";
    object      phi;
}
// * * * * * * * * * * * * * * * * * * * * * * * * * * * * * * * * * * * * * //

dimensions      [0 3 -1 0 0 0 0];

oriented        oriented;

internalField   nonuniform List<scalar> 
116611
(
0.00117773
0.000412182
-0.00116171
-0.000428202
0.00119358
0.000407734
-0.000423583
0.00120927
0.000402947
-0.000418633
0.00122477
0.000397783
-0.000413281
0.00123996
0.000392193
-0.000407384
0.00125525
0.000386201
-0.000401492
0.00126999
0.000379785
-0.00039453
0.00128476
0.00037296
-0.000387726
0.00129919
0.000365687
-0.000380118
0.00131344
0.000357968
-0.000372217
0.00132738
0.000349739
-0.000363675
0.00134112
0.00034103
-0.000354773
0.00135462
0.000331843
-0.000345349
0.00136784
0.000322116
-0.000335328
0.0013809
0.00031191
-0.000324977
0.0013934
0.000301146
-0.000313642
0.00140582
0.000289803
-0.000302228
0.00141773
0.000277928
-0.000289838
0.00142934
0.00026538
-0.00027699
0.00144051
0.000252319
-0.00026349
0.00145143
0.000238537
-0.000249454
0.00146195
0.000224196
-0.000234713
0.00147197
0.000209169
-0.000219195
0.00148165
0.000193498
-0.000203174
0.00149085
0.00017714
-0.000186341
0.00149956
0.000160049
-0.000168757
0.00150787
0.000142222
-0.000150535
0.00151539
0.00012368
-0.000131195
0.00152265
0.000104411
-0.000111675
0.00152901
8.43121e-05
-9.06757e-05
0.00153518
6.35965e-05
-6.97593e-05
0.00154042
4.18663e-05
-4.71126e-05
0.00154529
1.94003e-05
-2.42689e-05
0.00154934
-3.87061e-06
-1.79459e-07
0.00155278
-2.80514e-05
2.46085e-05
0.0015554
-5.30101e-05
5.03989e-05
0.00155748
-7.8895e-05
7.68128e-05
0.00155892
-0.000105586
0.000104148
0.00155955
-0.000133155
0.000132518
0.00155932
-0.000161747
0.000161975
0.00155835
-0.000191148
0.000192126
0.00155674
-0.000221496
0.000223099
0.00155441
-0.000252719
0.000255048
0.00155108
-0.0002849
0.000288233
0.00154697
-0.000318037
0.000322142
0.00154207
-0.000352079
0.000356986
0.00153655
-0.000387052
0.000392565
0.00152994
-0.000423033
0.000429652
0.00152259
-0.000459954
0.0004673
0.0015144
-0.000497836
0.000506028
0.00150533
-0.000536706
0.000545771
0.0014956
-0.00057647
0.000586208
0.00148515
-0.000617206
0.000627656
0.00147389
-0.000659007
0.000670265
0.00146179
-0.00070184
0.00071394
0.00144927
-0.000745684
0.000758197
0.00143604
-0.000790759
0.000803988
0.00142232
-0.000836981
0.000850702
0.00140803
-0.00088441
0.000898702
0.00139329
-0.000932945
0.000947686
0.00137876
-0.000982446
0.000996978
0.00136359
-0.0010335
0.00104867
0.00134786
-0.00108564
0.00110137
0.00133158
-0.00113847
0.00115476
0.0013145
-0.00119166
0.00120874
0.00129618
-0.00124498
0.0012633
0.00127733
-0.00129742
0.00131627
0.00125762
-0.00134889
0.0013686
-0.00139968
0.00123634
0.00142096
0.00116178
0.000396251
-0.00114585
0.00117756
0.000391949
0.0011932
0.000387312
0.00120867
0.000382314
0.00122395
0.000376909
0.00123903
0.000371119
0.00125389
0.000364926
0.00126854
0.000358308
0.00128296
0.000351265
0.00129716
0.000343768
0.0013111
0.000335807
0.00132476
0.00032737
0.00133816
0.000318442
0.00135127
0.000309008
0.0013641
0.00029908
0.00137663
0.000288614
0.00138882
0.000277611
0.0014007
0.000266046
0.00141218
0.000253906
0.00142333
0.000241168
0.00143405
0.000227816
0.00144439
0.000213855
0.0014543
0.000199253
0.0014638
0.000184002
0.00147286
0.000168083
0.00148145
0.000151459
0.00148953
0.000134143
0.00149709
0.000116116
0.00150415
9.7355e-05
0.00151061
7.78487e-05
0.00151663
5.75802e-05
0.00152198
3.65084e-05
0.00152674
1.46467e-05
0.00153089
-8.02074e-06
0.00153436
-3.15206e-05
0.0015372
-5.5851e-05
0.00153934
-8.10371e-05
0.00154081
-0.000107055
0.0015416
-0.000133951
0.00154162
-0.000161763
0.00154093
-0.000190457
0.00153948
-0.000220045
0.00153728
-0.000250523
0.00153432
-0.000281937
0.00153057
-0.000314291
0.00152606
-0.000347566
0.00152078
-0.000381767
0.00151468
-0.000416935
0.0015078
-0.000453072
0.00150012
-0.000490163
0.00149165
-0.000528229
0.00148244
-0.000567265
0.00147253
-0.000607297
0.00146192
-0.00064839
0.00145065
-0.000690574
0.00143883
-0.00073387
0.00142643
-0.000778359
0.00141353
-0.000824079
0.00140015
-0.000871028
0.00138638
-0.00091917
0.00137235
-0.000968422
0.0013577
-0.00101884
0.00134227
-0.00107021
0.00132593
-0.00112214
0.00130851
-0.00117424
0.0012897
-0.00122616
0.00126961
-0.00127733
0.0012482
-0.00132749
-0.00137634
0.00122486
0.00114658
0.000380454
-0.00113078
0.00116225
0.000376275
0.0011778
0.000371771
0.00119319
0.000366919
0.0012084
0.000361697
0.00122343
0.000356095
0.00123825
0.0003501
0.00125286
0.000343696
0.00126726
0.000336874
0.00128141
0.000329617
0.0012953
0.000321911
0.00130893
0.000313743
0.00132227
0.000305098
0.00133532
0.000295962
0.00134807
0.000286326
0.00136052
0.000276173
0.00137263
0.000265492
0.00138442
0.000254265
0.00139584
0.000242479
0.0014069
0.000230114
0.00141755
0.000217159
0.00142781
0.000203597
0.00143765
0.000189412
0.00144707
0.00017459
0.00145603
0.000159114
0.00146453
0.000142966
0.00147254
0.000126133
0.00148005
0.0001086
0.00148706
9.03514e-05
0.00149354
7.13712e-05
0.00149947
5.16432e-05
0.00150483
3.1149e-05
0.00150961
9.86935e-06
0.00151379
-1.22012e-05
0.00151734
-3.50736e-05
0.00152026
-5.87662e-05
0.00152251
-8.32895e-05
0.00152411
-0.000108653
0.00152503
-0.000134876
0.00152525
-0.000161976
0.00152475
-0.000189957
0.00152352
-0.000218821
0.00152158
-0.00024858
0.00151889
-0.000279254
0.00151545
-0.000310849
0.00151125
-0.000343368
0.00150631
-0.000376819
0.0015006
-0.000411224
0.00149412
-0.000446594
0.00148689
-0.000482932
0.00147892
-0.000520259
0.00147025
-0.000558593
0.00146091
-0.000597964
0.00145094
-0.000638422
0.00144039
-0.000680014
0.00142929
-0.000722776
0.00141769
-0.000766757
0.00140559
-0.000811984
0.001393
-0.000858437
0.00137989
-0.000906054
0.00136619
-0.000954725
0.00135168
-0.00100434
0.00133613
-0.00105466
0.00131934
-0.00110535
0.00130114
-0.00115604
0.00128136
-0.00120639
0.00126004
-0.00125601
0.00123722
-0.00130466
-0.00135199
0.00121287
0.00113214
0.000364764
-0.00111645
0.00114771
0.000360711
0.00116314
0.000356342
0.00117842
0.000351636
0.00119354
0.000346577
0.00120848
0.000341152
0.00122323
0.000335348
0.00123778
0.00032915
0.00125211
0.000322547
0.0012662
0.000315524
0.00128004
0.000308067
0.00129362
0.000300162
0.00130693
0.000291795
0.00131994
0.000282952
0.00133265
0.000273619
0.00134504
0.000263783
0.0013571
0.000253429
0.00136882
0.000242544
0.00138018
0.000231113
0.00139118
0.00021912
0.00140179
0.00020655
0.001412
0.000193388
0.00142179
0.000179619
0.00143115
0.000165227
0.00144007
0.000150196
0.00144853
0.00013451
0.00145651
0.000118153
0.00146399
0.000101111
0.00147098
8.33691e-05
0.00147744
6.491e-05
0.00148336
4.57184e-05
0.00148874
2.57765e-05
0.00149354
5.06578e-06
0.00149775
-1.6415e-05
0.00150136
-3.86819e-05
0.00150435
-6.17533e-05
0.0015067
-8.56422e-05
0.00150841
-0.000110361
0.00150946
-0.000135924
0.00150983
-0.000162345
0.00150951
-0.000189635
0.00150849
-0.000217801
0.00150676
-0.000246856
0.00150432
-0.000276811
0.00150115
-0.00030768
0.00149725
-0.000339472
0.00149263
-0.000372197
0.00148728
-0.000405875
0.00148121
-0.000440521
0.00147443
-0.000476153
0.00146697
-0.000512796
0.00145885
-0.000550479
0.00145013
-0.000589238
0.00144082
-0.000629119
0.00143098
-0.000670166
0.00142061
-0.000712411
0.00140973
-0.000755874
0.00139829
-0.000800549
0.00138624
-0.000846379
0.00137345
-0.000893264
0.00135977
-0.000941051
0.00134499
-0.000989557
0.00132887
-0.00103854
0.00131122
-0.0010877
0.00129191
-0.00113673
0.0012709
-0.00118537
0.00124823
-0.00123335
0.00122403
-0.00128046
-0.00132632
0.00119837
0.00111847
0.000349183
-0.00110289
0.00113392
0.000345255
0.00114924
0.000341023
0.00116441
0.000336463
0.00117943
0.000331563
0.00119427
0.00032631
0.00120893
0.000320691
0.00122339
0.000314693
0.00123763
0.000308303
0.00125165
0.000301507
0.00126542
0.000294292
0.00127894
0.000286643
0.00129219
0.000278548
0.00130515
0.000269991
0.00131781
0.00026096
0.00133015
0.000251438
0.00134217
0.000241413
0.00135384
0.00023087
0.00136516
0.000219794
0.00137611
0.00020817
0.00138667
0.000195984
0.00139684
0.00018322
0.0014066
0.000169863
0.00141593
0.000155898
0.00142482
0.000141308
0.00143325
0.000126079
0.00144121
0.000110193
0.00144868
9.36371e-05
0.00145566
7.63945e-05
0.00146212
5.84492e-05
0.00146805
3.97855e-05
0.00147344
2.03869e-05
0.00147827
2.35807e-07
0.00148252
-2.06678e-05
0.00148618
-4.2345e-05
0.00148924
-6.48125e-05
0.00149169
-8.80843e-05
0.0014935
-0.000112174
0.00149467
-0.000137094
0.00149518
-0.000162859
0.00149503
-0.000189481
0.0014942
-0.000216971
0.00149268
-0.000245342
0.00149048
-0.000274607
0.00148758
-0.000304781
0.00148399
-0.000335876
0.0014797
-0.00036791
0.00147473
-0.000400902
0.00146908
-0.000434875
0.00146278
-0.000469855
0.00145586
-0.00050587
0.00144833
-0.000542957
0.00144025
-0.000581151
0.00143162
-0.000620489
0.00142245
-0.000660999
0.00141273
-0.000702691
0.00140241
-0.00074555
0.00139138
-0.000789525
0.00137953
-0.000834523
0.00136667
-0.000880404
0.00135261
-0.000926992
0.00133714
-0.000974086
0.00132006
-0.00102146
0.00130124
-0.00106888
0.00128062
-0.00111611
0.00125822
-0.00116298
0.00123416
-0.00120929
0.0012086
-0.0012549
-0.00129942
0.00118169
0.00110557
0.00033371
-0.0010901
0.00112092
0.000329906
0.00113613
0.000325809
0.0011512
0.000321397
0.00116611
0.000316655
0.00118085
0.000311572
0.0011954
0.000306135
0.00120976
0.000300333
0.00122391
0.000294152
0.00123784
0.000287579
0.00125153
0.000280601
0.00126497
0.000273204
0.00127814
0.000265375
0.00129103
0.000257099
0.00130363
0.000248363
0.00131592
0.000239151
0.00132788
0.00022945
0.00133951
0.000219245
0.00135078
0.000208522
0.00136168
0.000197265
0.00137221
0.000185459
0.00138234
0.00017309
0.00139206
0.000160142
0.00140136
0.000146599
0.00141022
0.000132447
0.00141863
0.000117668
0.00142658
0.000102248
0.00143404
8.61715e-05
0.00144101
6.94218e-05
0.00144748
5.19832e-05
0.00145343
3.38399e-05
0.00145884
1.49758e-05
0.0014637
-4.62462e-06
0.00146799
-2.49643e-05
0.00147171
-4.60654e-05
0.00147485
-6.79438e-05
0.00147738
-9.06142e-05
0.00147929
-0.00011409
0.00148058
-0.000138387
0.00148124
-0.000163517
0.00148126
-0.000189494
0.00148062
-0.000216333
0.00147932
-0.000244047
0.00147737
-0.000272652
0.00147475
-0.000302165
0.00147148
-0.000332604
0.00146756
-0.000363989
0.001463
-0.000396346
0.00145783
-0.000429701
0.00145205
-0.000464083
0.00144571
-0.000499523
0.0014388
-0.000536053
0.00143135
-0.0005737
0.00142334
-0.000612481
0.00141474
-0.000652396
0.00140547
-0.000693424
0.00139543
-0.000735509
0.00138447
-0.000778564
0.00137241
-0.000822463
0.00135906
-0.000867051
0.00134422
-0.000912151
0.00132771
-0.000957577
0.0013094
-0.00100315
0.00128921
-0.0010487
0.00126717
-0.00109407
0.00124335
-0.00113916
0.0012179
-0.00118383
0.00119096
-0.00122796
-0.00127125
0.00116279
0.00109345
0.000318332
-0.00107807
0.0011087
0.000314654
0.00112381
0.000310694
0.00113878
0.000306429
0.00115359
0.000301846
0.00116823
0.000296933
0.00118269
0.000291679
0.00119695
0.000286071
0.001211
0.000280098
0.00122484
0.000273745
0.00123844
0.000267002
0.00125179
0.000259853
0.00126488
0.000252286
0.00127769
0.000244286
0.00129021
0.00023584
0.00130243
0.000226933
0.00131433
0.000217552
0.00132589
0.000207681
0.00133711
0.000197305
0.00134796
0.000186411
0.00135844
0.000174981
0.00136853
0.000163002
0.00137821
0.000150459
0.00138748
0.000137334
0.00139631
0.000123613
0.0014047
0.00010928
0.00141263
9.43198e-05
0.00142008
7.87154e-05
0.00142705
6.24514e-05
0.00143353
4.55118e-05
0.00143949
2.78805e-05
0.00144492
9.54076e-06
0.00144981
-9.51839e-06
0.00145416
-2.9307e-05
0.00145794
-4.98457e-05
0.00146114
-7.11503e-05
0.00146377
-9.3236e-05
0.00146579
-0.000116117
0.00146722
-0.00013981
0.00146803
-0.000164328
0.00146822
-0.000189687
0.00146779
-0.000215903
0.00146673
-0.000242993
0.00146506
-0.000270975
0.00146276
-0.000299869
0.00145986
-0.000329698
0.00145635
-0.000360486
0.00145227
-0.000392259
0.00144761
-0.000425045
0.0014424
-0.000458871
0.00143664
-0.000493762
0.00143032
-0.000529734
0.00142341
-0.000566795
0.00141587
-0.000604935
0.0014076
-0.000644123
0.00139847
-0.000684301
0.00138835
-0.000725384
0.00137704
-0.000767258
0.00136437
-0.000809788
0.00135014
-0.000852822
0.00133419
-0.000896206
0.00131641
-0.000939793
0.00129671
-0.000983453
0.0012751
-0.00102708
0.00125162
-0.0010706
0.00122639
-0.00111392
0.00119953
-0.00115697
0.00117113
-0.00119957
-0.00124142
0.00114131
0.00108209
0.000303034
-0.00106679
0.00109726
0.000299485
0.00111229
0.000295665
0.00112717
0.000291549
0.00114189
0.000287126
0.00115644
0.000282385
0.0011708
0.000277314
0.00118497
0.000271902
0.00119893
0.000266136
0.00121267
0.000260004
0.00122618
0.000253493
0.00123944
0.00024659
0.00125245
0.000239283
0.00126518
0.000231556
0.00127762
0.000223398
0.00128976
0.000214793
0.00130158
0.000205727
0.00131308
0.000196185
0.00132423
0.000186153
0.00133503
0.000175616
0.00134545
0.000164558
0.00135549
0.000152965
0.00136513
0.00014082
0.00137435
0.000128108
0.00138315
0.000114813
0.00139151
0.00010092
0.00139942
8.64114e-05
0.00140687
7.12722e-05
0.00141383
5.5486e-05
0.00142031
3.90365e-05
0.00142628
2.19076e-05
0.00143174
4.08145e-06
0.00143667
-1.44484e-05
0.00144106
-3.36997e-05
0.00144491
-5.36912e-05
0.0014482
-7.44391e-05
0.00145092
-9.59591e-05
0.00145307
-0.000118267
0.00145464
-0.00014138
0.00145562
-0.000165313
0.00145602
-0.000190086
0.00145584
-0.000215715
0.00145506
-0.00024222
0.00145371
-0.000269623
0.00145179
-0.000297947
0.0014493
-0.000327214
0.00144627
-0.000357451
0.00144269
-0.00038868
0.00143857
-0.000420923
0.00143389
-0.000454198
0.00142864
-0.000488511
0.00142277
-0.000523861
0.0014162
-0.000560228
0.00140884
-0.000597572
0.00140055
-0.000635835
0.00139118
-0.000674934
0.00138057
-0.000714767
0.00136852
-0.000755215
0.00135488
-0.000796149
0.0013395
-0.00083744
0.00132227
-0.000878968
0.0013031
-0.00092063
0.00128199
-0.000962345
0.00125897
-0.00100406
0.0012341
-0.00104573
0.00120748
-0.0010873
0.00117915
-0.00112864
0.00114912
-0.00116954
-0.00120969
0.00111738
0.0010715
0.000287805
-0.00105627
0.0010866
0.000284388
0.00110156
0.000280709
0.00111636
0.000276745
0.001131
0.000272485
0.00114547
0.000267918
0.00115975
0.000263032
0.00117384
0.000257816
0.00118772
0.000252258
0.00120137
0.000246346
0.0012148
0.000240069
0.00122798
0.000233412
0.0012409
0.000226363
0.00125354
0.000218909
0.0012659
0.000211036
0.00127797
0.00020273
0.00128972
0.000193977
0.00130114
0.000184762
0.00131222
0.00017507
0.00132295
0.000164886
0.00133331
0.000154196
0.0013433
0.000142983
0.00135289
0.000131232
0.00136207
0.000118926
0.00137083
0.000106051
0.00137916
9.25903e-05
0.00138704
7.85268e-05
0.00139447
6.38445e-05
0.00140143
4.85269e-05
0.00140791
3.25575e-05
0.0014139
1.59195e-05
0.00141938
-1.40429e-06
0.00142435
-1.94203e-05
0.0014288
-3.81507e-05
0.00143273
-5.76134e-05
0.00143611
-7.78253e-05
0.00143896
-9.88033e-05
0.00144126
-0.000120565
0.001443
-0.000143128
0.0014442
-0.000166512
0.00144485
-0.000190735
0.00144496
-0.000215819
0.00144452
-0.000241784
0.00144355
-0.000268652
0.00144205
-0.000296446
0.00144002
-0.000325187
0.00143746
-0.000354894
0.00143437
-0.000385583
0.0014307
-0.00041726
0.00142643
-0.000449927
0.00142149
-0.000483571
0.0014158
-0.000518165
0.00140924
-0.000553666
0.00140168
-0.000590014
0.00139297
-0.000627132
0.00138297
-0.000664927
0.0013715
-0.000703297
0.00135841
-0.000742131
0.00134359
-0.000781322
0.00132692
-0.000820769
0.00130833
-0.000860385
0.00128781
-0.000900107
0.00126535
-0.00093989
0.001241
-0.000979708
0.00121481
-0.00101953
0.0011868
-0.00105928
0.00115689
-0.00109874
0.00112481
-0.00113745
-0.00117469
0.00108981
0.00106172
0.000272638
-0.00104655
0.00107675
0.000269353
0.00109164
0.000265817
0.00110638
0.000262007
0.00112096
0.000257912
0.00113535
0.00025352
0.00114957
0.00024882
0.00116358
0.000243802
0.00117738
0.000238454
0.00119097
0.000232764
0.00120431
0.000226721
0.00121741
0.00022031
0.00123026
0.000213521
0.00124283
0.000206339
0.00125511
0.000198751
0.0012671
0.000190743
0.00127878
0.0001823
0.00129013
0.000173409
0.00130114
0.000164055
0.00131181
0.000154221
0.00132211
0.000143894
0.00133204
0.000133057
0.00134157
0.000121695
0.00135071
0.000109791
0.00135943
9.73288e-05
0.00136773
8.42926e-05
0.00137559
7.06654e-05
0.001383
5.64304e-05
0.00138996
4.15707e-05
0.00139645
2.60692e-05
0.00140246
9.90812e-06
0.00140798
-6.92725e-06
0.00141301
-2.44489e-05
0.00141754
-4.2679e-05
0.00142156
-6.16362e-05
0.00142508
-8.13384e-05
0.00142808
-0.000101804
0.00143056
-0.000123052
0.00143254
-0.000145102
0.001434
-0.000167974
0.00143495
-0.000191689
0.0014354
-0.000216266
0.00143534
-0.000241725
0.00143478
-0.000268087
0.0014337
-0.000295367
0.00143209
-0.000323579
0.00142993
-0.000352731
0.00142717
-0.000382824
0.00142376
-0.00041385
0.00141962
-0.00044579
0.00141466
-0.000478612
0.00140877
-0.000512273
0.00140182
-0.000546714
0.00139367
-0.000581866
0.00138418
-0.000617645
0.00137322
-0.000653964
0.00136065
-0.000690729
0.00134637
-0.000727847
0.00133028
-0.000765232
0.00131232
-0.00080281
0.00129246
-0.000840522
0.00127068
-0.000878329
0.001247
-0.000916209
0.00122143
-0.000954139
0.00119397
-0.000992074
0.00116453
-0.00102985
0.00113286
-0.00106706
0.00109825
-0.00110285
-0.00113552
0.00105909
0.0010528
0.000257527
-0.00103769
0.00106778
0.000254375
0.00108261
0.000250983
0.00109729
0.000247328
0.0011118
0.000243398
0.00112614
0.000239182
0.00114029
0.00023467
0.00115424
0.000229852
0.00116798
0.000224715
0.0011815
0.000219248
0.00119478
0.000213439
0.00120781
0.000207277
0.00122059
0.000200747
0.00123309
0.000193837
0.0012453
0.000186533
0.00125722
0.000178823
0.00126884
0.00017069
0.00128012
0.000162122
0.00129108
0.000153102
0.00130168
0.000143616
0.00131193
0.000133648
0.0013218
0.000123183
0.00133129
0.000112204
0.00134039
0.000100694
0.00134908
8.86382e-05
0.00135735
7.60181e-05
0.0013652
6.28171e-05
0.00137261
4.90178e-05
0.00137958
3.46026e-05
0.0013861
1.95536e-05
0.00139215
3.85202e-06
0.00139774
-1.25142e-05
0.00140286
-2.95646e-05
0.0014075
-4.73202e-05
0.00141166
-6.58002e-05
0.00141535
-8.50237e-05
0.00141855
-0.00010501
0.00142128
-0.000125779
0.00142353
-0.00014735
0.0014253
-0.000169742
0.00142658
-0.000192974
0.00142738
-0.000217062
0.00142767
-0.000242022
0.00142745
-0.000267864
0.00142668
-0.000294597
0.00142532
-0.000322222
0.00142333
-0.000350733
0.00142062
-0.000380119
0.00141713
-0.000410355
0.00141275
-0.00044141
0.00140737
-0.00047324
0.00140089
-0.000505793
0.00139318
-0.000539005
0.00138412
-0.000572807
0.0013736
-0.000607121
0.00136151
-0.000641869
0.00134775
-0.000676969
0.00133225
-0.000712347
0.00131495
-0.000747935
0.00129582
-0.000783675
0.00127482
-0.000819525
0.00125195
-0.000855457
0.00122718
-0.000891446
0.00120049
-0.00092745
0.00117178
-0.00096336
0.00114079
-0.000998857
0.00110693
-0.00103321
0.00106888
-0.0010648
-0.00109107
0.00102444
0.00104483
0.000242469
-0.00102977
0.00105976
0.000239449
0.00107454
0.000236201
0.00108917
0.0002327
0.00110363
0.000228936
0.00111792
0.000224897
0.00113201
0.000220574
0.00114591
0.000215955
0.00115959
0.00021103
0.00117305
0.000205787
0.00118628
0.000200214
0.00119926
0.000194299
0.00121198
0.000188029
0.00122442
0.000181391
0.00123658
0.000174372
0.00124845
0.000166958
0.00126
0.000159134
0.00127124
0.000150886
0.00128214
0.000142199
0.0012927
0.000133056
0.00130291
0.000123444
0.00131275
0.000113345
0.00132221
0.000102742
0.00133128
9.16194e-05
0.00133996
7.99594e-05
0.00134824
6.77445e-05
0.0013561
5.4957e-05
0.00136353
4.15787e-05
0.00137055
2.75912e-05
0.00137712
1.29759e-05
0.00138326
-2.28605e-06
0.00138896
-1.8208e-05
0.0013942
-3.4813e-05
0.00139901
-5.21213e-05
0.00140336
-7.0152e-05
0.00140726
-8.89243e-05
0.0014107
-0.000108457
0.00141369
-0.000128767
0.00141622
-0.000149873
0.00141826
-0.000171789
0.00141982
-0.000194529
0.00142086
-0.000218103
0.00142135
-0.000242518
0.00142127
-0.000267776
0.00142054
-0.000293874
0.00141912
-0.000320803
0.00141694
-0.000348547
0.0014139
-0.000377083
0.00140993
-0.00040638
0.00140492
-0.000436399
0.00139877
-0.000467094
0.00139139
-0.000498409
0.00138267
-0.000530286
0.00137252
-0.000562658
0.00136086
-0.000595459
0.0013476
-0.000628617
0.0013327
-0.000662066
0.00131609
-0.000695741
0.00129774
-0.000729584
0.00127762
-0.000763546
0.00125568
-0.000797588
0.00123189
-0.000831672
0.00120619
-0.000865747
0.00117845
-0.000899709
0.0011484
-0.000933307
0.00111549
-0.000965949
0.00107859
-0.000996303
0.0010353
-0.00102152
-0.00103783
0.000982062
0.00103794
0.000227453
-0.00102293
0.00105283
0.000224565
0.00106757
0.00022146
0.00108215
0.000218114
0.00109657
0.000214514
0.00111082
0.000210652
0.00112487
0.000206518
0.00113873
0.000202099
0.00115238
0.000197385
0.0011658
0.000192366
0.00117898
0.000187028
0.00119192
0.000181361
0.0012046
0.00017535
0.00121701
0.000168983
0.00122913
0.000162247
0.00124096
0.000155127
0.00125249
0.000147609
0.00126369
0.000139678
0.00127457
0.000131319
0.00128512
0.000122516
0.00129531
0.000113252
0.00130514
0.000103511
0.00131461
9.32768e-05
0.00132369
8.25307e-05
0.0013324
7.12553e-05
0.00134071
5.94325e-05
0.00134862
4.70437e-05
0.00135613
3.40702e-05
0.00136323
2.0493e-05
0.00136991
6.29239e-06
0.00137618
-8.54825e-06
0.00138202
-2.40472e-05
0.00138743
-4.0226e-05
0.00139241
-5.71032e-05
0.00139695
-7.46967e-05
0.00140105
-9.30235e-05
0.0014047
-0.000112099
0.00140787
-0.000131938
0.00141055
-0.000152553
0.00141271
-0.000173952
0.00141432
-0.000196143
0.00141535
-0.000219129
0.00141574
-0.000242909
0.00141544
-0.000267478
0.00141439
-0.000292824
0.00141252
-0.000318933
0.00140976
-0.000345781
0.00140602
-0.000373343
0.00140122
-0.000401583
0.00139528
-0.000430462
0.00138813
-0.000459936
0.00137967
-0.000489953
0.00136984
-0.000520458
0.00135858
-0.000551393
0.00134582
-0.000582698
0.00133151
-0.00061431
0.00131561
-0.000646168
0.00129808
-0.000678215
0.00127889
-0.000710393
0.001258
-0.000742651
0.00123534
-0.000774933
0.00121084
-0.000807169
0.00118433
-0.000839238
0.00115552
-0.000870898
0.00112383
-0.000901619
0.00108819
-0.000930306
0.0010465
-0.000954617
0.000994971
-0.000969983
-0.00097015
0.00092729
0.0010323
0.000212461
-0.00101731
0.00104716
0.000209705
0.00106188
0.000206742
0.00107645
0.000203549
0.00109085
0.000200114
0.00110507
0.000196428
0.00111911
0.00019248
0.00113295
0.00018826
0.00114658
0.000183757
0.00115998
0.000178959
0.00117316
0.000173855
0.00118608
0.000168433
0.00119876
0.000162679
0.00121116
0.000156581
0.00122328
0.000150124
0.00123511
0.000143295
0.00124664
0.000136078
0.00125786
0.000128459
0.00126876
0.000120422
0.00127932
0.000111951
0.00128955
0.000103029
0.00129942
9.36387e-05
0.00130893
8.3763e-05
0.00131808
7.33838e-05
0.00132685
6.24828e-05
0.00133524
5.10416e-05
0.00134325
3.90411e-05
0.00135086
2.64625e-05
0.00135806
1.32865e-05
0.00136486
-5.06013e-07
0.00137124
-1.49304e-05
0.0013772
-3.0007e-05
0.00138273
-4.57535e-05
0.00138781
-6.21864e-05
0.00139244
-7.93204e-05
0.00139658
-9.71694e-05
0.00140023
-0.000115745
0.00140335
-0.000135057
0.00140591
-0.000155113
0.00140787
-0.000175917
0.0014092
-0.00019747
0.00140984
-0.000219771
0.00140974
-0.000242812
0.00140885
-0.000266585
0.0014071
-0.000291075
0.00140443
-0.000316263
0.00140078
-0.000342125
0.00139607
-0.000368634
0.00139024
-0.000395756
0.00138323
-0.000423454
0.00137498
-0.000451686
0.00136543
-0.000480406
0.00135454
-0.000509564
0.00134226
-0.000539108
0.00132854
-0.000568982
0.00131336
-0.000599128
0.00129668
-0.00062949
0.00127847
-0.000660006
0.00125869
-0.000690614
0.00123728
-0.000721243
0.00121415
-0.0007518
0.00118912
-0.000782137
0.00116186
-0.000811984
0.00113177
-0.000840808
0.00109767
-0.000867513
0.00105742
-0.000890062
0.00100722
-0.000904415
0.00094097
-0.000903733
-0.000879813
0.000850633
0.00102822
0.000197462
-0.00101322
0.00104309
0.000194836
0.00105782
0.000192012
0.0010724
0.00018897
0.00108681
0.000185697
0.00110106
0.000182184
0.00111512
0.000178421
0.00112898
0.000174397
0.00114263
0.000170102
0.00115607
0.000165523
0.00116928
0.00016065
0.00118224
0.000155469
0.00119495
0.000149969
0.0012074
0.000144135
0.00121957
0.000137954
0.00123145
0.000131412
0.00124303
0.000124493
0.00125431
0.000117182
0.00126527
0.000109464
0.0012759
0.000101321
0.00128619
9.27376e-05
0.00129613
8.36957e-05
0.00130572
7.41777e-05
0.00131494
6.41656e-05
0.00132378
5.36411e-05
0.00133223
4.25856e-05
0.0013403
3.09807e-05
0.00134795
1.88075e-05
0.00135519
6.0475e-06
0.001362
-7.31601e-06
0.00136837
-2.12993e-05
0.00137428
-3.59199e-05
0.00137972
-5.11929e-05
0.00138467
-6.71321e-05
0.0013891
-8.37497e-05
0.00139298
-0.000101056
0.0013963
-0.00011906
0.00139901
-0.000137768
0.00140108
-0.000157183
0.00140247
-0.000177307
0.00140313
-0.000198137
0.00140303
-0.000219668
0.00140211
-0.000241892
0.00140032
-0.000264797
0.00139761
-0.000288366
0.00139393
-0.000312581
0.00138923
-0.000337419
0.00138344
-0.000362852
0.00137654
-0.00038885
0.00136846
-0.000415378
0.00135917
-0.000442398
0.00134864
-0.000469868
0.00133682
-0.000497744
0.00132368
-0.000525976
0.00130922
-0.000554514
0.00129339
-0.000583302
0.00127618
-0.00061228
0.00125756
-0.000641381
0.00123747
-0.000670524
0.00121582
-0.000699597
0.00119245
-0.000728428
0.00116702
-0.000756709
0.00113889
-0.000783851
0.00110681
-0.000808727
0.00106847
-0.000829178
0.00101998
-0.000841566
0.000954858
-0.000839297
0.000863385
-0.00081226
-0.000747053
0.000730625
0.00102621
0.000182404
-0.00101115
0.00104114
0.000179904
0.00105594
0.000177217
0.00107058
0.000174323
0.00108507
0.00017121
0.00109939
0.000167867
0.00111352
0.000164286
0.00112746
0.000160456
0.0011412
0.000156367
0.00115472
0.000152006
0.001168
0.000147362
0.00118105
0.000142423
0.00119384
0.000137177
0.00120637
0.000131609
0.00121862
0.000125706
0.00123057
0.000119454
0.00124223
0.000112838
0.00125357
0.000105842
0.00126458
9.84506e-05
0.00127526
9.06473e-05
0.00128558
8.24153e-05
0.00129554
7.37374e-05
0.00130512
6.4596e-05
0.00131431
5.49733e-05
0.0013231
4.48513e-05
0.00133147
3.42117e-05
0.00133942
2.30365e-05
0.00134692
1.13076e-05
0.00135396
-9.92629e-07
0.00136052
-1.38786e-05
0.00136659
-2.73672e-05
0.00137214
-4.14734e-05
0.00137716
-5.62108e-05
0.00138162
-7.15912e-05
0.00138549
-8.76253e-05
0.00138876
-0.000104321
0.00139139
-0.000121686
0.00139334
-0.000139723
0.00139459
-0.000158435
0.00139511
-0.000177819
0.00139484
-0.000197873
0.00139376
-0.000218589
0.00139183
-0.000239957
0.001389
-0.000261965
0.00138523
-0.000284597
0.00138048
-0.000307834
0.00137471
-0.000331654
0.00136789
-0.000356031
0.00135998
-0.000380938
0.00135095
-0.000406343
0.00134076
-0.000432213
0.0013294
-0.000458508
0.00131685
-0.00048519
0.00130309
-0.000512214
0.0012881
-0.000539531
0.00127189
-0.000567086
0.00125442
-0.000594814
0.00123567
-0.000622632
0.00121557
-0.000650419
0.00119395
-0.000677981
0.0011705
-0.000704973
0.00114454
-0.000730749
0.00111474
-0.000754051
0.00107865
-0.000772639
0.00103209
-0.000782619
0.000968625
-0.000778101
0.000879224
-0.000749896
0.00075301
-0.000686046
-0.000578518
0.000584476
0.001027
0.000167231
-0.00101183
0.00104205
0.000164856
0.00105696
0.000162307
0.00107172
0.000159562
0.00108632
0.00015661
0.00110074
0.000153441
0.00111498
0.000150047
0.00112902
0.000146416
0.00114285
0.000142539
0.00115645
0.000138404
0.00116981
0.000134
0.00118292
0.000129315
0.00119576
0.000124336
0.00120832
0.00011905
0.00122059
0.000113443
0.00123254
0.000107502
0.00124417
0.000101211
0.00125545
9.45554e-05
0.00126638
8.75195e-05
0.00127694
8.00869e-05
0.00128712
7.22409e-05
0.00129689
6.39646e-05
0.00130625
5.52403e-05
0.00131517
4.60504e-05
0.00132364
3.63771e-05
0.00133165
2.62023e-05
0.00133918
1.55081e-05
0.00134621
4.27688e-06
0.00135273
-7.50732e-06
0.00135871
-1.98599e-05
0.00136414
-3.2797e-05
0.001369
-4.63327e-05
0.00137327
-6.04797e-05
0.00137692
-7.52491e-05
0.00137995
-9.06504e-05
0.00138232
-0.000106691
0.00138401
-0.000123375
0.00138499
-0.000140707
0.00138524
-0.000158685
0.00138473
-0.000177307
0.00138343
-0.000196569
0.0013813
-0.000216461
0.00137831
-0.000236974
0.00137444
-0.000258094
0.00136965
-0.000279806
0.00136391
-0.000302091
0.00135718
-0.000324928
0.00134945
-0.000348296
0.00134068
-0.000372168
0.00133085
-0.000396518
0.00131996
-0.000421316
0.00130798
-0.000446529
0.00129491
-0.000472122
0.00128075
-0.000498058
0.00126551
-0.000524289
0.00124919
-0.00055076
0.00123176
-0.000577391
0.00121319
-0.00060406
0.00119333
-0.000630561
0.00117186
-0.000656509
0.00114805
-0.000681167
0.00112048
-0.000703172
0.00108642
-0.000719995
0.00104141
-0.000727629
0.00097875
-0.00071996
0.000889531
-0.000688881
0.000763674
-0.00062404
0.000594183
-0.000516555
-0.000377046
0.00039271
0.00103093
0.000151951
-0.00101565
0.00104608
0.000149712
0.00106107
0.000147311
0.00107591
0.000144728
0.00109056
0.000141951
0.00110503
0.000138973
0.0011193
0.000135782
0.00113334
0.00013237
0.00114716
0.000128727
0.00116072
0.000124841
0.00117402
0.000120701
0.00118704
0.000116296
0.00119976
0.000111613
0.00121217
0.000106639
0.00122426
0.000101361
0.00123599
9.57655e-05
0.00124737
8.9837e-05
0.00125836
8.35607e-05
0.00126896
7.69209e-05
0.00127914
6.99014e-05
0.0012889
6.24855e-05
0.00129821
5.4656e-05
0.00130705
4.63952e-05
0.00131542
3.76854e-05
0.00132329
2.85085e-05
0.00133064
1.88462e-05
0.00133747
8.68052e-06
0.00134375
-2.00611e-06
0.00134948
-1.32293e-05
0.00135462
-2.50059e-05
0.00135918
-3.73516e-05