/*--------------------------------*- C++ -*----------------------------------*\
| =========                 |                                                 |
| \\      /  F ield         | OpenFOAM: The Open Source CFD Toolbox           |
|  \\    /   O peration     | Version:  2312                                  |
|   \\  /    A nd           | Website:  www.openfoam.com                      |
|    \\/     M anipulation  |                                                 |
\*---------------------------------------------------------------------------*/
FoamFile
{
    version     2.0;
    format      ascii;
    arch        "LSB;label=32;scalar=64";
    class       volVectorField;
    location    "1600";
    object      U;
}
// * * * * * * * * * * * * * * * * * * * * * * * * * * * * * * * * * * * * * //

dimensions      [0 1 -1 0 0 0 0];

internalField   nonuniform List<vector> 
76025
(
(0.0387724 -0.00872342 0)
(0.0389819 -0.00876857 4.17591e-22)
(0.0391931 -0.00880753 0)
(0.0394069 -0.00884275 0)
(0.0396124 -0.00887435 -7.26177e-22)
(0.0398323 -0.00889752 -1.33998e-21)
(0.0400452 -0.00891787 2.29482e-21)
(0.0402642 -0.00893024 -9.58824e-22)
(0.0404829 -0.00893935 -2.88384e-22)
(0.0407022 -0.00894473 2.69864e-22)
(0.040921 -0.00894442 3.66792e-24)
(0.0411422 -0.00893693 6.73338e-22)
(0.0413673 -0.00892617 -9.06124e-22)
(0.0415916 -0.00890872 0)
(0.0418242 -0.00888266 1.75371e-22)
(0.042049 -0.00885757 0)
(0.0422804 -0.00881891 0)
(0.0425087 -0.00878258 0)
(0.0427386 -0.00873396 1.11379e-22)
(0.0429659 -0.00868659 -8.28113e-23)
(0.0431953 -0.00862746 -6.38506e-23)
(0.043429 -0.00856337 -1.39547e-22)
(0.0436597 -0.00849469 8.3903e-23)
(0.043891 -0.00841812 1.61402e-23)
(0.0441225 -0.00833788 -3.75449e-23)
(0.0443506 -0.00825646 -6.86341e-23)
(0.044584 -0.00815896 1.34923e-22)
(0.0448093 -0.00806092 -1.61294e-22)
(0.0450364 -0.00795372 7.40167e-23)
(0.0452605 -0.00783893 -9.21167e-23)
(0.0454822 -0.00772922 -1.13323e-22)
(0.0456998 -0.0076145 2.98842e-22)
(0.0459197 -0.00747987 -4.67257e-22)
(0.0461363 -0.00735222 -1.07011e-22)
(0.0463494 -0.00720999 4.99385e-22)
(0.0465579 -0.00707293 1.09356e-23)
(0.0467633 -0.00692646 -1.1126e-22)
(0.046971 -0.00676243 6.30034e-23)
(0.0471783 -0.00660366 3.98765e-24)
(0.0473787 -0.00643704 -1.03949e-22)
(0.0475746 -0.00627114 6.98266e-23)
(0.0477701 -0.006095 -3.65704e-23)
(0.0479682 -0.00589847 7.53517e-23)
(0.0481634 -0.00571047 -1.59631e-22)
(0.0483529 -0.00551264 -1.72521e-22)
(0.0485409 -0.00531668 3.32813e-22)
(0.0487307 -0.00510047 3.63675e-22)
(0.0489218 -0.00488609 -1.11697e-21)
(0.0491087 -0.00466667 7.44229e-22)
(0.0492964 -0.00444341 -2.76848e-25)
(0.0494855 -0.00421296 -1.99262e-21)
(0.0496761 -0.00397081 -7.98018e-22)
(0.0498721 -0.00371845 8.42926e-22)
(0.0500728 -0.00345695 0)
(0.050278 -0.00318937 -8.5292e-22)
(0.0504921 -0.00291919 -8.98132e-22)
(0.0507196 -0.00263254 2.88954e-23)
(0.0509593 -0.00233515 -9.02005e-22)
(0.0512129 -0.00202468 9.50534e-22)
(0.05148 -0.00169369 -2.78255e-21)
(0.0517764 -0.00134851 -1.93175e-21)
(0.0521018 -0.000981309 -5.75736e-23)
(0.0524399 -0.00059059 0)
(0.0527848 -0.000168947 5.08201e-21)
(0.0531317 0.000289049 -1.99648e-21)
(0.0534691 0.000769927 1.03e-21)
(0.0537657 0.0013222 -2.09633e-21)
(0.0540254 0.001946 2.20522e-21)
(0.0542873 0.002592 4.40795e-21)
(0.0386968 -0.00909136 4.44712e-22)
(0.0389165 -0.00913739 1.25986e-21)
(0.0391384 -0.00917756 -1.68591e-21)
(0.0393623 -0.00921208 0)
(0.0395855 -0.00924284 1.83064e-21)
(0.0398121 -0.00926664 -7.49098e-23)
(0.0400391 -0.009286 -1.37553e-21)
(0.040267 -0.00929907 0)
(0.0404967 -0.00930642 3.54658e-24)
(0.0407273 -0.00930853 -2.78149e-22)
(0.040959 -0.0093053 2.58903e-22)
(0.041191 -0.00929601 5.96732e-24)
(0.0414236 -0.00928121 0)
(0.0416571 -0.00926064 0)
(0.0418927 -0.00923257 3.1623e-22)
(0.0421281 -0.00920065 -8.25607e-22)
(0.0423648 -0.00916086 -1.3375e-22)
(0.0426012 -0.00911678 3.31754e-22)
(0.042838 -0.00906552 -2.18203e-22)
(0.0430739 -0.00900969 8.51021e-23)
(0.0433098 -0.00894694 -3.41902e-23)
(0.0435455 -0.00887793 1.00217e-22)
(0.0437807 -0.00880326 -2.11701e-23)
(0.0440155 -0.00872207 -4.52483e-24)
(0.0442499 -0.00863498 1.84496e-23)
(0.0444834 -0.00854299 1.30121e-22)
(0.0447162 -0.0084435 -9.85958e-23)
(0.0449466 -0.00833942 0)
(0.0451756 -0.00822869 0)
(0.0454027 -0.00811237 -1.28583e-22)
(0.0456292 -0.00798908 0)
(0.0458546 -0.0078613 -1.70825e-22)
(0.0460772 -0.00772666 1.93119e-22)
(0.046297 -0.00758823 -3.00521e-22)
(0.0465144 -0.00744385 9.23281e-24)
(0.0467294 -0.00729417 -1.14358e-22)
(0.0469423 -0.00713731 0)
(0.0471529 -0.00697438 -2.73937e-22)
(0.047362 -0.00680789 2.15465e-22)
(0.0475686 -0.00663671 -1.83221e-22)
(0.0477725 -0.00645933 1.16038e-22)
(0.0479745 -0.00627516 -3.95043e-25)
(0.0481751 -0.00608585 4.59195e-23)
(0.0483747 -0.00589367 -4.27796e-23)
(0.0485729 -0.005695 3.70758e-22)
(0.0487702 -0.00548951 -1.91149e-22)
(0.0489676 -0.00527695 -2.04892e-22)
(0.0491655 -0.0050612 3.86514e-22)
(0.0493635 -0.00483837 1.22244e-21)
(0.0495624 -0.00460816 -6.26264e-25)
(0.049763 -0.00437116 1.26292e-21)
(0.0499661 -0.00412579 -4.40175e-22)
(0.0501743 -0.00387246 -1.32973e-21)
(0.0503895 -0.00361264 8.83639e-22)
(0.0506127 -0.00334539 0)
(0.0508461 -0.00306702 2.80739e-21)
(0.0510936 -0.0027803 3.24432e-23)
(0.0513566 -0.00248412 -9.44542e-22)
(0.051637 -0.00217636 -9.89491e-22)
(0.0519361 -0.00185264 0)
(0.0522557 -0.00150495 9.48255e-22)
(0.0525971 -0.00113875 2.99541e-21)
(0.0529489 -0.000752137 0)
(0.0532991 -0.00033679 -2.06204e-21)
(0.0536375 0.000113854 1.15236e-21)
(0.0539503 0.000600785 -2.17671e-21)
(0.0542221 0.00113276 1.0848e-21)
(0.0544478 0.00170811 -2.25648e-21)
(0.054618 0.00232364 -2.27584e-21)
(0.0386201 -0.00948671 -2.20806e-21)
(0.0388489 -0.00953291 1.34994e-21)
(0.0390808 -0.00957323 -4.17349e-22)
(0.0393148 -0.00960761 1.54715e-21)
(0.0395507 -0.00963673 -1.9186e-21)
(0.0397878 -0.00966023 -1.38291e-21)
(0.0400265 -0.00967814 1.71352e-21)
(0.0402664 -0.00969016 0)
(0.0405076 -0.00969624 4.00329e-24)
(0.0407498 -0.00969633 0)
(0.0409928 -0.0096905 -2.49878e-22)
(0.0412362 -0.00967861 2.35274e-22)
(0.0414798 -0.00966057 1.015e-21)
(0.0417236 -0.00963646 -8.06551e-22)
(0.0419677 -0.00960592 1.74861e-22)
(0.0422123 -0.00956919 4.3527e-22)
(0.0424571 -0.00952612 -1.46011e-22)
(0.042702 -0.00947674 -1.14512e-22)
(0.0429468 -0.00942121 -2.40895e-22)
(0.0431911 -0.00935931 1.58007e-22)
(0.0434347 -0.00929128 4.1568e-23)
(0.0436774 -0.00921694 -3.53195e-23)
(0.0439193 -0.00913641 3.53142e-23)
(0.0441604 -0.00904961 -2.06851e-23)
(0.0444004 -0.00895667 0)
(0.0446392 -0.00885784 6.23653e-23)
(0.0448762 -0.00875306 8.65591e-23)
(0.0451118 -0.00864224 -6.63197e-23)
(0.045346 -0.00852522 0)
(0.0455785 -0.00840245 2.75714e-22)
(0.0458096 -0.00827344 -1.68113e-22)
(0.0460387 -0.00813948 -1.84555e-23)
(0.0462654 -0.00800028 0)
(0.04649 -0.00785547 1.06493e-22)
(0.0467128 -0.00770487 -3.64417e-22)
(0.0469333 -0.00754858 2.46265e-22)
(0.0471514 -0.00738691 0)
(0.0473673 -0.00721978 2.17921e-22)
(0.0475816 -0.00704739 -2.2452e-22)
(0.047794 -0.00687013 -3.84378e-23)
(0.0480042 -0.00668738 0)
(0.0482127 -0.00649924 -8.58849e-23)
(0.0484199 -0.00630562 -4.55092e-23)
(0.0486264 -0.00610665 4.46212e-23)
(0.0488321 -0.00590212 -2.78048e-22)
(0.049037 -0.00569191 -1.99766e-22)
(0.0492421 -0.00547599 3.92369e-22)
(0.049448 -0.00525458 -4.189e-22)
(0.049655 -0.00502717 4.29049e-22)
(0.0498638 -0.00479356 -4.2235e-22)
(0.0500754 -0.00455366 -4.30834e-22)
(0.0502914 -0.00430671 9.11656e-22)
(0.0505138 -0.00405251 0)
(0.0507447 -0.00379122 9.42886e-22)
(0.050986 -0.00352236 3.52849e-25)
(0.0512403 -0.00324506 -9.71666e-22)
(0.0515105 -0.00295925 -9.85455e-22)
(0.051798 -0.00266328 1.96445e-21)
(0.0521036 -0.00235483 2.1576e-24)
(0.0524264 -0.00203072 1.01993e-21)
(0.0527645 -0.00168734 -2.06222e-21)
(0.0531137 -0.00132451 -1.03595e-21)
(0.0534633 -0.000939046 4.26471e-23)
(0.0538005 -0.000526378 -1.03617e-21)
(0.0541138 -8.28948e-05 -1.02149e-21)
(0.0543919 0.000393171 -3.29278e-21)
(0.0546239 0.000906879 0)
(0.0548031 0.00145814 -1.19883e-21)
(0.054923 0.00204722 1.1387e-21)
(0.0385454 -0.00990602 0)
(0.0387846 -0.00995223 4.41244e-22)
(0.0390268 -0.00999225 2.06141e-21)
(0.0392711 -0.010026 -1.63666e-21)
(0.0395176 -0.010054 -1.09098e-21)
(0.0397659 -0.0100762 1.81977e-21)
(0.040016 -0.0100925 -3.35807e-22)
(0.0402675 -0.0101026 3.10507e-22)
(0.0405202 -0.0101066 2.93591e-22)
(0.0407739 -0.0101044 1.03747e-21)
(0.0410282 -0.0100958 -1.02933e-21)
(0.0412831 -0.0100809 -8.65461e-22)
(0.0415383 -0.0100595 2.6562e-22)
(0.0417936 -0.0100316 7.36597e-22)
(0.0420487 -0.00999709 -5.04276e-22)
(0.0423038 -0.009956 1.35671e-22)
(0.0425586 -0.00990834 -1.14001e-22)
(0.042813 -0.00985407 -9.23749e-23)
(0.0430669 -0.00979328 2.1754e-22)
(0.0433201 -0.00972594 -8.49361e-23)
(0.0435724 -0.00965212 -4.1759e-23)
(0.0438236 -0.00957179 0)
(0.0440736 -0.00948503 5.03619e-23)
(0.0443222 -0.00939192 -1.44315e-23)
(0.0445694 -0.00929255 -1.19612e-22)
(0.044815 -0.00918704 -1.84013e-22)
(0.0450588 -0.00907539 3.47061e-22)
(0.0453008 -0.0089576 -2.2711e-22)
(0.045541 -0.00883381 0)
(0.0457792 -0.0087042 -3.12911e-22)
(0.0460155 -0.00856889 -1.95451e-23)
(0.0462496 -0.00842815 3.79157e-22)
(0.0464817 -0.00828202 -2.31884e-22)
(0.0467116 -0.00813016 6.08271e-22)
(0.0469394 -0.00797269 -1.13858e-22)
(0.0471649 -0.00780989 0)
(0.0473881 -0.00764185 0)
(0.0476094 -0.00746851 7.91593e-23)
(0.0478288 -0.00729003 7.78106e-23)
(0.0480465 -0.00710664 4.31431e-23)
(0.0482623 -0.00691816 -1.40034e-24)
(0.0484767 -0.00672451 4.39771e-23)
(0.0486901 -0.00652561 0)
(0.0489028 -0.00632162 -4.74834e-24)
(0.0491149 -0.00611257 0)
(0.0493271 -0.00589823 1.98381e-22)
(0.0495398 -0.00567844 7.93756e-24)
(0.049754 -0.00545324 -6.46143e-22)
(0.0499702 -0.00522254 0)
(0.0501895 -0.00498607 -4.53028e-22)
(0.0504133 -0.0047436 4.46126e-22)
(0.0506432 -0.00449485 -9.0686e-22)
(0.0508814 -0.00423961 0)
(0.0511302 -0.00397777 -2.87291e-21)
(0.0513917 -0.00370897 3.44107e-25)
(0.0516682 -0.00343235 9.62402e-22)
(0.0519611 -0.00314694 9.73451e-22)
(0.0522708 -0.00285121 0)
(0.0525958 -0.002543 0)
(0.0529328 -0.00221965 -1.00472e-21)
(0.0532764 -0.00187829 2.02888e-21)
(0.0536188 -0.00151716 2.05035e-21)
(0.0539493 -0.00113432 0)
(0.0542565 -0.00072723 -2.15079e-21)
(0.0545298 -0.000293655 0)
(0.0547609 0.000167997 3.31962e-21)
(0.0549437 0.000660334 -1.10618e-21)
(0.0550748 0.0011839 -1.21077e-21)
(0.0551461 0.00173972 -1.24102e-21)
(0.0384744 -0.01035 0)
(0.0387247 -0.010396 0)
(0.038978 -0.0104354 4.21899e-22)
(0.0392332 -0.0104683 -1.55677e-21)
(0.0394906 -0.010495 1.92837e-21)
(0.0397501 -0.0105156 -3.56287e-22)
(0.0400115 -0.0105299 0)
(0.0402744 -0.0105378 -3.12054e-22)
(0.0405385 -0.0105391 0)
(0.0408037 -0.010534 -5.07324e-22)
(0.0410697 -0.0105221 5.22532e-23)
(0.0413362 -0.0105036 4.61769e-22)
(0.041603 -0.0104782 0)
(0.0418698 -0.0104461 -3.28078e-22)
(0.0421364 -0.010407 9.16282e-22)
(0.0424027 -0.0103611 -5.34793e-22)
(0.0426683 -0.0103084 5.48632e-22)
(0.0429332 -0.0102488 -1.02314e-22)
(0.0431972 -0.0101823 5.6813e-23)
(0.0434602 -0.0101091 -4.94209e-23)
(0.0437219 -0.0100291 -7.05596e-24)
(0.0439822 -0.00994238 9.49449e-24)
(0.0442409 -0.00984908 -4.71941e-23)
(0.044498 -0.00974927 0)
(0.0447532 -0.00964304 1.54673e-22)
(0.0450065 -0.0095305 1.22613e-22)
(0.0452578 -0.00941175 -2.99926e-22)
(0.0455068 -0.0092869 1.22724e-22)
(0.0457537 -0.00915608 -3.28625e-22)
(0.0459983 -0.00901942 4.96187e-22)
(0.0462406 -0.0088771 -2.08637e-22)
(0.0464806 -0.00872925 1.15512e-22)
(0.0467182 -0.0085761 0)
(0.0469536 -0.00841724 -1.2537e-22)
(0.0471867 -0.00825294 -1.33956e-22)
(0.0474174 -0.00808344 0)
(0.047646 -0.00790882 1.6068e-22)
(0.0478726 -0.00772915 -2.4615e-22)
(0.0480973 -0.00754453 1.65271e-22)
(0.0483203 -0.00735508 -8.84946e-23)
(0.0485418 -0.00716078 -1.55385e-24)
(0.0487621 -0.00696158 -7.29648e-23)
(0.0489816 -0.00675749 2.39252e-23)
(0.0492006 -0.00654857 9.83049e-23)
(0.0494197 -0.0063348 9.61468e-25)
(0.0496395 -0.00611608 6.32134e-22)
(0.0498606 -0.00589234 0)
(0.050084 -0.00566358 4.34008e-22)
(0.0503109 -0.00542976 -1.67403e-24)
(0.0505424 -0.00519072 -4.52348e-22)
(0.0507803 -0.00494631 0)
(0.0510264 -0.00469635 -4.82334e-22)
(0.0512829 -0.00444057 4.73975e-22)
(0.0515517 -0.00417863 9.58983e-22)
(0.0518346 -0.00390993 0)
(0.0521325 -0.00363349 -1.99184e-21)
(0.052445 -0.00334799 2.00966e-21)
(0.0527704 -0.00305179 -2.02558e-21)
(0.0531046 -0.00274281 -2.97471e-23)
(0.0534418 -0.00241883 0)
(0.0537741 -0.00207777 -1.05238e-21)
(0.0540927 -0.00171823 1.03261e-21)
(0.0543876 -0.00133918 1.09253e-21)
(0.0546496 -0.000939522 2.11092e-21)
(0.0548711 -0.000518367 -3.29266e-21)
(0.0550478 -7.48534e-05 2.21936e-21)
(0.0551772 0.00039254 -1.11288e-21)
(0.0552596 0.00088524 1.15804e-21)
(0.0552828 0.00140319 3.5688e-21)
(0.0384068 -0.010821 -1.79924e-21)
(0.0386688 -0.0108667 8.9799e-23)
(0.0389339 -0.0109055 1.73493e-21)
(0.039201 -0.0109372 0)
(0.0394701 -0.0109624 -3.77118e-22)
(0.0397413 -0.0109811 0)
(0.0400144 -0.0109931 6.33899e-22)
(0.040289 -0.0109983 -4.58634e-23)
(0.0405649 -0.0109967 -8.62474e-22)
(0.0408419 -0.0109881 2.53014e-22)
(0.0411196 -0.0109725 2.38554e-22)
(0.0413978 -0.0109498 2.05263e-22)
(0.0416763 -0.01092 0)
(0.0419548 -0.0108831 0)
(0.0422329 -0.010839 -1.47134e-22)
(0.0425105 -0.0107877 -1.24463e-22)
(0.0427874 -0.0107293 1.67592e-22)
(0.0430633 -0.0106637 -1.67622e-22)
(0.043338 -0.0105911 -9.80105e-23)
(0.0436113 -0.0105114 3.1211e-23)
(0.043883 -0.0104247 -3.45661e-23)
(0.044153 -0.0103311 2.70651e-23)
(0.044421 -0.0102307 -7.72712e-23)
(0.0446871 -0.0101237 -7.30894e-23)
(0.0449509 -0.0100101 -1.92567e-22)
(0.0452124 -0.00989007 1.93089e-22)
(0.0454715 -0.00976377 2.8129e-22)
(0.0457282 -0.00963133 -2.82261e-22)
(0.0459822 -0.00949291 0)
(0.0462338 -0.00934867 0)
(0.0464827 -0.00919878 5.53169e-22)
(0.046729 -0.00904343 3.25451e-23)
(0.0469726 -0.00888283 -2.52947e-22)
(0.0472139 -0.00871654 -2.91699e-22)
(0.0474526 -0.008545 2.8828e-22)
(0.047689 -0.00836842 0)
(0.0479231 -0.00818692 -1.59704e-22)
(0.0481552 -0.0080006 -2.66178e-22)
(0.0483855 -0.00780957 1.74893e-22)
(0.0486142 -0.00761392 -2.70266e-24)
(0.0488416 -0.00741368 -1.54991e-23)
(0.0490682 -0.00720889 7.27194e-23)
(0.0492942 -0.00699957 5.24731e-23)
(0.0495204 -0.00678576 1.07043e-22)
(0.0497474 -0.00656746 -5.35109e-22)
(0.0499758 -0.00634468 7.93195e-25)
(0.0502068 -0.0061174 0)
(0.0504414 -0.00588562 -4.67843e-22)
(0.0506811 -0.00564932 1.40635e-21)
(0.0509274 -0.00540839 -9.48922e-22)
(0.051182 -0.00516267 -4.87741e-22)
(0.0514467 -0.0049119 -1.63102e-23)
(0.0517232 -0.00465567 -4.98014e-22)
(0.0520124 -0.00439337 -2.93151e-23)
(0.0523149 -0.0041241 9.87521e-22)
(0.0526294 -0.00384666 -1.02495e-21)
(0.0529536 -0.00355958 -1.03049e-21)
(0.0532831 -0.00326119 2.04161e-21)
(0.0536118 -0.00294981 1.94642e-24)
(0.0539321 -0.00262386 1.04651e-21)
(0.0542356 -0.00228222 -1.01913e-21)
(0.0545139 -0.00192436 1.03135e-21)
(0.054759 -0.00155027 -2.08352e-21)
(0.0549648 -0.00116014 -1.08623e-21)
(0.0551274 -0.000754202 2.10649e-21)
(0.055246 -0.000332253 -1.14087e-21)
(0.0553208 0.000106561 -3.47149e-21)
(0.055355 0.000564546 -1.21698e-21)
(0.0553318 0.00103447 0)
(0.0383423 -0.0113211 0)
(0.0386172 -0.0113664 -4.45083e-22)
(0.038895 -0.0114043 -2.93016e-24)
(0.0391747 -0.0114348 0)
(0.0394566 -0.0114582 0)
(0.0397404 -0.0114747 -3.43714e-22)
(0.040026 -0.0114842 9.39689e-22)
(0.0403131 -0.0114864 -1.19166e-21)
(0.0406014 -0.0114814 5.79849e-22)
(0.0408906 -0.011469 -2.53375e-22)
(0.0411806 -0.0114492 0)
(0.0414709 -0.0114219 -2.0552e-22)
(0.0417614 -0.0113871 1.68833e-22)
(0.0420518 -0.0113449 0)
(0.0423417 -0.0112951 0)
(0.0426309 -0.0112378 -8.84242e-23)
(0.0429192 -0.011173 4.73838e-23)
(0.0432063 -0.0111009 1.36499e-22)
(0.043492 -0.0110213 6.01099e-23)
(0.043776 -0.0109345 -4.24742e-23)
(0.0440581 -0.0108404 4.87824e-24)
(0.0443381 -0.0107393 1.71621e-22)
(0.0446159 -0.0106312 2.42961e-23)
(0.0448913 -0.0105163 -1.15038e-22)
(0.0451641 -0.0103947 1.88456e-22)
(0.0454342 -0.0102666 -1.38902e-22)
(0.0457016 -0.0101321 2.79487e-22)
(0.0459662 -0.00999151 0)
(0.0462278 -0.00984492 0)
(0.0464866 -0.00969255 0)
(0.0467424 -0.0095346 -1.14926e-22)
(0.0469954 -0.0093713 -2.62292e-22)
(0.0472455 -0.00920272 2.74422e-22)
(0.0474929 -0.00902867 3.1272e-22)
(0.0477377 -0.00884957 -3.09072e-22)
(0.0479801 -0.00866565 0)
(0.0482201 -0.00847705 1.79817e-22)
(0.0484582 -0.00828391 -8.92495e-23)
(0.0486945 -0.00808634 0)
(0.0489295 -0.00788444 9.79579e-23)
(0.0491636 -0.00767832 -1.90258e-23)
(0.0493972 -0.00746802 1.27155e-23)
(0.049631 -0.00725362 -5.20091e-23)
(0.0498656 -0.00703518 0)
(0.050102 -0.00681276 -2.2725e-22)
(0.0503412 -0.00658638 2.23929e-22)
(0.0505844 -0.00635608 0)
(0.0508329 -0.00612184 -1.69934e-23)
(0.0510882 -0.00588362 1.81813e-24)
(0.0513518 -0.00564124 4.76423e-22)
(0.0516251 -0.00539441 0)
(0.0519093 -0.00514266 -1.7761e-23)
(0.0522047 -0.00488531 -4.91969e-22)
(0.0525109 -0.00462143 -1.5343e-21)
(0.0528263 -0.00434989 -3.04782e-23)
(0.0531478 -0.00406933 1.00263e-21)
(0.0534705 -0.00377835 0)
(0.0537885 -0.00347562 0)
(0.0540945 -0.00316004 1.03912e-21)
(0.0543806 -0.00283097 0)
(0.0546393 -0.00248828 0)
(0.054864 -0.00213255 8.21876e-24)
(0.0550494 -0.0017648 -1.03174e-21)
(0.0551928 -0.00138626 -2.14903e-21)
(0.0552934 -0.000998085 2.1485e-21)
(0.055353 -0.000600674 -9.14212e-24)
(0.0553732 -0.000193725 1.11849e-21)
(0.0553574 0.00022543 1.17856e-21)
(0.0552828 0.000640985 0)
(0.0382804 -0.0118519 0)
(0.0385692 -0.0118969 4.44932e-22)
(0.038861 -0.0119339 -1.22999e-21)
(0.0391546 -0.0119629 4.19706e-22)
(0.0394502 -0.0119845 0)
(0.0397477 -0.0119986 9.99086e-22)
(0.0400469 -0.0120052 -1.57625e-21)
(0.0403474 -0.0120041 4.99829e-23)
(0.040649 -0.0119953 1.32099e-21)
(0.0409514 -0.0119786 -2.69315e-22)
(0.0412543 -0.0119542 2.05261e-22)
(0.0415575 -0.0119218 1.79497e-22)
(0.0418607 -0.0118815 -4.67705e-22)
(0.0421635 -0.0118333 5.47833e-22)
(0.0424657 -0.0117772 -2.48906e-22)
(0.042767 -0.0117133 5.48966e-23)
(0.0430671 -0.0116416 -2.51547e-22)
(0.0433658 -0.0115621 7.30366e-23)
(0.0436627 -0.0114749 1.88341e-23)
(0.0439577 -0.0113803 2.72098e-23)
(0.0442505 -0.0112781 4.74754e-23)
(0.0445409 -0.0111687 -3.44881e-22)
(0.0448287 -0.0110522 -1.17081e-22)
(0.0451137 -0.0109287 -4.62167e-23)
(0.0453958 -0.0107984 3.71398e-22)
(0.0456749 -0.0106615 -1.39307e-22)
(0.0459508 -0.0105183 3.69053e-22)
(0.0462235 -0.0103688 -5.79278e-22)
(0.0464931 -0.0102135 0)
(0.0467593 -0.0100524 -2.52511e-22)
(0.0470224 -0.00988587 2.53462e-22)
(0.0472823 -0.00971412 1.29034e-23)
(0.0475393 -0.00953709 -1.60241e-22)
(0.0477933 -0.0093549 -1.68719e-22)
(0.0480446 -0.00916792 5.26881e-22)
(0.0482934 -0.0089764 -3.45968e-22)
(0.0485399 -0.0087805 2.85705e-22)
(0.0487846 -0.00858039 -3.84265e-22)
(0.0490279 -0.00837622 1.94259e-22)
(0.0492702 -0.00816813 -4.9837e-23)
(0.049512 -0.00795625 0)
(0.0497542 -0.00774068 5.5136e-23)
(0.0499974 -0.00752154 -5.4372e-23)
(0.0502426 -0.00729892 -1.15179e-22)
(0.0504909 -0.00707288 3.48217e-22)
(0.0507435 -0.00684348 -2.32804e-22)
(0.0510016 -0.00661071 -2.34947e-22)
(0.0512665 -0.00637446 0)
(0.0515396 -0.00613453 -9.97632e-22)
(0.0518216 -0.00589056 9.90548e-22)
(0.052113 -0.00564199 -4.90034e-22)
(0.0524137 -0.00538806 4.80632e-22)
(0.0527225 -0.00512777 5.01343e-22)
(0.053037 -0.00486 1.00143e-21)
(0.0533535 -0.0045835 1.00364e-21)
(0.0536673 -0.00429705 0)
(0.0539722 -0.0039996 -1.03694e-21)
(0.0542615 -0.0036904 0)
(0.0545281 -0.0033692 2.58296e-23)
(0.0547654 -0.00303632 -1.01561e-21)
(0.0549675 -0.00269268 1.01564e-21)
(0.0551302 -0.00233985 1.02706e-21)
(0.0552511 -0.00197978 -1.05078e-21)
(0.0553299 -0.00161457 -2.24594e-23)
(0.0553682 -0.00124614 -1.45696e-23)
(0.0553687 -0.000875447 3.34254e-21)
(0.0553328 -0.000502686 1.15455e-21)
(0.0552609 -0.000125881 1.25483e-21)
(0.0551256 0.000233263 -1.22693e-21)
(0.0382204 -0.0124163 0)
(0.0385246 -0.0124608 0)
(0.0388317 -0.0124967 -7.96902e-22)
(0.0391405 -0.0125241 1.18197e-21)
(0.0394512 -0.0125436 3.52705e-22)
(0.0397636 -0.0125551 0)
(0.0400775 -0.0125585 0)
(0.0403926 -0.0125538 -2.70641e-22)
(0.0407086 -0.0125408 4.75257e-22)
(0.0410253 -0.0125195 -6.58654e-23)
(0.0413422 -0.0124898 -9.95989e-22)
(0.0416592 -0.0124518 1.90285e-22)
(0.0419759 -0.0124055 -1.29177e-22)
(0.042292 -0.0123508 2.65278e-22)
(0.0426072 -0.0122878 -8.40102e-23)
(0.0429213 -0.0122165 0)
(0.0432338 -0.0121371 0)
(0.0435446 -0.0120496 2.31945e-23)
(0.0438533 -0.0119541 -6.15915e-24)
(0.0441598 -0.0118509 2.05547e-23)
(0.0444637 -0.0117399 -6.78084e-23)
(0.0447648 -0.0116214 6.84711e-23)
(0.0450629 -0.0114957 1.14054e-22)
(0.0453579 -0.0113628 -9.03523e-23)
(0.0456496 -0.0112231 -1.38878e-22)
(0.0459379 -0.0110767 0)
(0.0462227 -0.0109239 0)
(0.046504 -0.010765 3.24855e-22)
(0.0467817 -0.0106003 0)
(0.0470559 -0.0104299 2.76593e-22)
(0.0473266 -0.0102542 -2.77496e-22)
(0.0475938 -0.0100735 -1.4894e-22)
(0.047858 -0.00988756 1.58069e-22)
(0.0481192 -0.00969686 3.46394e-22)
(0.0483776 -0.00950172 -1.74367e-22)
(0.0486336 -0.00930239 -1.92881e-22)
(0.0488876 -0.00909908 1.97028e-22)
(0.04914 -0.008892 0)
(0.0493915 -0.00868133 0)
(0.0496426 -0.00846727 5.51101e-23)
(0.0498942 -0.00824997 0)
(0.0501471 -0.00802957 0)
(0.0504022 -0.0078062 -1.75469e-22)
(0.0506606 -0.00757994 2.34651e-22)
(0.0509234 -0.00735081 -1.21686e-22)
(0.0511919 -0.00711878 2.35885e-22)
(0.0514668 -0.00688366 0)
(0.0517491 -0.00664517 7.53396e-22)
(0.0520392 -0.00640283 -2.68555e-24)
(0.0523368 -0.00615597 0)
(0.052641 -0.00590374 -1.01132e-21)
(0.0529501 -0.00564511 -2.82395e-24)
(0.0532611 -0.00537896 -1.00307e-21)
(0.05357 -0.00510413 -5.18636e-22)
(0.0538719 -0.00481956 -1.03336e-21)
(0.0541612 -0.00452443 1.00832e-21)
(0.0544317 -0.00421828 1.00661e-21)
(0.054677 -0.00390112 0)
(0.0548914 -0.00357354 -1.03289e-21)
(0.0550699 -0.00323677 -1.7006e-24)
(0.0552089 -0.00289263 0)
(0.0553063 -0.00254351 0)
(0.0553619 -0.00219214 1.0401e-21)
(0.055377 -0.00184134 0)
(0.0553538 -0.00149369 0)
(0.0552945 -0.0011506 -1.1009e-21)
(0.0551972 -0.000812709 -1.16625e-21)
(0.0550543 -0.000480346 -1.22441e-21)
(0.0548337 -0.000172706 0)
(0.0381627 -0.0130176 0)
(0.0384837 -0.0130613 0)
(0.0388074 -0.0130959 0)
(0.0391327 -0.0131215 3.68796e-22)
(0.0394597 -0.0131386 3.1465e-22)
(0.0397884 -0.0131471 -5.39621e-23)
(0.0401184 -0.013147 -6.08008e-22)
(0.0404494 -0.0131382 2.69061e-22)
(0.0407811 -0.0131206 -2.26925e-22)
(0.0411132 -0.0130942 -4.14151e-22)
(0.0414454 -0.0130589 0)
(0.0417773 -0.0130147 0)
(0.0421087 -0.0129617 -2.47559e-23)
(0.0424391 -0.0128998 -3.15957e-22)
(0.0427683 -0.0128292 2.6723e-22)
(0.043096 -0.01275 -5.19523e-23)
(0.0434219 -0.0126621 -6.93297e-23)
(0.0437456 -0.0125659 -6.97767e-24)
(0.0440668 -0.0124613 -2.42939e-23)
(0.0443854 -0.0123486 0)
(0.044701 -0.012228 1.6014e-22)
(0.0450134 -0.0120997 0)
(0.0453225 -0.0119639 2.57686e-22)
(0.045628 -0.0118208 -4.66541e-22)
(0.0459297 -0.0116709 5.18004e-22)
(0.0462277 -0.0115142 2.13955e-22)
(0.0465219 -0.0113512 -3.52187e-22)
(0.0468121 -0.0111821 3.74405e-22)
(0.0470985 -0.0110073 -2.56896e-22)
(0.0473811 -0.010827 0)
(0.04766 -0.0106416 -3.23616e-22)
(0.0479353 -0.0104515 -1.9605e-22)
(0.0482075 -0.0102564 3.40985e-22)
(0.0484767 -0.0100569 -3.68009e-22)
(0.0487433 -0.00985345 1.95895e-22)
(0.0490078 -0.00964627 -1.93518e-22)
(0.0492707 -0.00943562 -9.91952e-23)
(0.0495327 -0.00922176 1.09064e-22)
(0.0497944 -0.00900491 5.46311e-23)
(0.0500566 -0.00878527 -1.63111e-22)
(0.0503203 -0.00856302 -1.46187e-23)
(0.0505864 -0.00833827 0)
(0.0508559 -0.00811108 5.75618e-23)
(0.0511297 -0.00788142 -1.17049e-22)
(0.0514085 -0.00764916 1.18762e-22)
(0.0516931 -0.00741405 0)
(0.0519838 -0.00717564 0)
(0.0522802 -0.00693335 2.62264e-22)
(0.0525816 -0.00668642 -4.97207e-22)
(0.0528865 -0.00643391 -1.02957e-21)
(0.0531925 -0.0061748 2.03296e-21)
(0.0534964 -0.00590801 -5.18038e-22)
(0.0537942 -0.0056325 5.0349e-22)
(0.0540811 -0.00534738 5.01524e-22)
(0.054352 -0.00505203 -1.03064e-21)
(0.0546015 -0.00474617 1.00674e-21)
(0.054824 -0.00443001 0)
(0.0550147 -0.00410426 -1.03058e-21)
(0.0551695 -0.00377027 8.86117e-25)
(0.055285 -0.00342996 1.01137e-21)
(0.0553595 -0.00308584 0)
(0.0553925 -0.00274096 0)
(0.0553847 -0.00239866 0)
(0.0553378 -0.00206236 2.155e-21)
(0.0552536 -0.00173524 1.12268e-21)
(0.0551314 -0.00141886 1.1725e-21)
(0.0549627 -0.00111433 -2.37241e-21)
(0.0547282 -0.000820609 3.17626e-23)
(0.0543635 -0.000556564 1.28552e-21)
(0.0381088 -0.0136596 0)
(0.0384476 -0.0137024 8.09845e-22)
(0.0387892 -0.0137355 -9.99174e-22)
(0.0391324 -0.0137589 5.04584e-22)
(0.0394772 -0.0137732 -1.01546e-21)
(0.0398235 -0.0137784 -2.94881e-22)
(0.040171 -0.0137744 -2.65485e-22)
(0.0405193 -0.0137611 0)
(0.0408681 -0.0137384 4.31999e-22)
(0.041217 -0.0137063 3.68327e-22)
(0.0415657 -0.0136648 -3.48841e-22)
(0.0419139 -0.0136138 1.21333e-22)
(0.0422611 -0.0135534 -6.79815e-23)
(0.0426071 -0.0134838 1.4243e-22)
(0.0429515 -0.0134048 1.79613e-22)
(0.043294 -0.0133168 -5.31333e-23)
(0.0436342 -0.0132197 -5.25607e-23)
(0.0439718 -0.0131139 3.09012e-23)
(0.0443066 -0.0129993 4.18577e-23)
(0.0446382 -0.0128764 1.84642e-22)
(0.0449665 -0.0127453 -1.56405e-22)
(0.045291 -0.0126063 0)
(0.0456118 -0.0124596 2.92395e-23)
(0.0459286 -0.0123056 0)
(0.0462412 -0.0121446 -1.87848e-22)
(0.0465497 -0.011977 -2.11081e-22)
(0.046854 -0.011803 1.17008e-22)
(0.047154 -0.0116231 0)
(0.04745 -0.0114376 1.5505e-22)
(0.047742 -0.011247 3.26471e-22)
(0.0480301 -0.0110515 -3.27104e-22)
(0.0483148 -0.0108514 1.71182e-22)
(0.0485963 -0.010647 -3.82922e-22)
(0.0488751 -0.0104387 7.64159e-22)
(0.0491516 -0.010227 -1.9641e-22)
(0.0494265 -0.0100121 0)
(0.0497005 -0.00979437 -1.10682e-22)
(0.0499742 -0.00957404 7.00014e-24)
(0.0502485 -0.00935135 1.69004e-22)
(0.0505242 -0.00912644 -1.41962e-22)
(0.0508021 -0.0088994 2.79319e-23)
(0.0510829 -0.00867023 -9.09557e-23)
(0.0513674 -0.00843881 5.93889e-23)
(0.0516559 -0.00820489 0)
(0.0519486 -0.0079681 0)
(0.0522451 -0.00772788 0)
(0.0525448 -0.00748356 2.56509e-22)
(0.0528463 -0.0072343 2.57676e-22)
(0.0531476 -0.00697917 0)
(0.053446 -0.0067172 5.02081e-22)
(0.0537385 -0.00644742 5.2159e-22)
(0.054021 -0.00616894 5.18245e-22)
(0.0542894 -0.00588107 0)
(0.0545391 -0.00558333 0)
(0.0547655 -0.0052756 -1.02715e-21)
(0.0549642 -0.00495817 1.00584e-21)
(0.0551309 -0.00463178 0)
(0.0552623 -0.00429771 1.00616e-21)
(0.0553555 -0.00395777 -1.01082e-21)
(0.0554088 -0.00361439 -1.03753e-21)
(0.0554213 -0.00327053 1.04454e-21)
(0.055393 -0.00292971 -1.04025e-21)
(0.055325 -0.0025958 0)
(0.0552179 -0.00227271 -1.08855e-21)
(0.0550709 -0.00196417 6.65008e-24)
(0.0548781 -0.00167158 -2.30018e-21)
(0.0546186 -0.00139686 -2.43219e-21)
(0.0542566 -0.00113042 2.57591e-21)
(0.0536565 -0.000923573 -1.36315e-21)
(0.0380605 -0.0143474 2.08508e-22)
(0.0384186 -0.0143891 0)
(0.0387796 -0.0144203 1.89407e-22)
(0.039142 -0.0144412 -8.32326e-22)
(0.039506 -0.0144524 1.42133e-21)
(0.0398714 -0.0144539 -3.05119e-22)
(0.0402378 -0.0144455 2.62002e-22)
(0.0406049 -0.0144272 -4.20229e-22)
(0.0409722 -0.0143988 2.14771e-22)
(0.0413395 -0.0143604 1.75934e-22)
(0.0417062 -0.014312 1.24934e-22)
(0.0420721 -0.0142536 -3.09298e-22)
(0.0424367 -0.0141852 1.22191e-22)
(0.0427997 -0.0141069 -1.16518e-22)
(0.0431606 -0.0140189 1.73842e-23)
(0.0435193 -0.0139212 5.40919e-23)
(0.0438752 -0.0138142 -3.10858e-23)
(0.0442281 -0.0136979 0)
(0.0445777 -0.0135726 0)
(0.0449237 -0.0134385 -1.23605e-22)
(0.0452657 -0.0132961 -1.18081e-22)
(0.0456037 -0.0131455 -3.38988e-22)
(0.0459374 -0.0129872 1.72097e-22)
(0.0462667 -0.0128214 4.34834e-22)
(0.0465915 -0.0126487 -4.34912e-22)
(0.0469118 -0.0124694 1.34965e-22)
(0.0472276 -0.0122839 1.46369e-22)
(0.0475389 -0.0120926 0)
(0.0478459 -0.011896 -1.51862e-22)
(0.0481489 -0.0116946 -3.51307e-22)
(0.0484481 -0.0114888 -2.06176e-23)
(0.0487439 -0.0112787 3.68552e-22)
(0.0490368 -0.0110649 -2.0536e-22)
(0.0493273 -0.0108478 0)
(0.049616 -0.0106279 1.09213e-22)
(0.0499035 -0.0104054 -1.12103e-22)
(0.0501905 -0.0101806 1.0729e-22)
(0.0504778 -0.00995374 -2.27021e-22)
(0.0507659 -0.00972488 0)
(0.0510554 -0.00949405 -3.03118e-23)
(0.0513468 -0.00926117 2.9893e-23)
(0.0516403 -0.009026 -4.74705e-23)
(0.0519359 -0.00878821 1.84356e-22)
(0.0522333 -0.0085473 -3.72085e-22)
(0.0525316 -0.00830266 2.45501e-22)
(0.0528298 -0.00805358 2.53523e-22)
(0.0531261 -0.00779925 -2.37096e-22)
(0.0534184 -0.00753882 5.21609e-22)
(0.0537041 -0.00727143 -4.99894e-22)
(0.0539801 -0.00699629 -1.26781e-21)
(0.0542431 -0.00671269 3.70941e-24)
(0.0544894 -0.00642011 -4.98336e-22)
(0.0547153 -0.00611824 0)
(0.054917 -0.00580704 0)
(0.055091 -0.00548681 -1.02627e-21)
(0.0552339 -0.00515822 1.51968e-21)
(0.0553428 -0.00482234 -1.0126e-21)
(0.0554154 -0.00448074 0)
(0.0554499 -0.0041355 1.04558e-21)
(0.0554451 -0.00378926 2.08311e-21)
(0.0554003 -0.00344525 -1.04604e-21)
(0.0553155 -0.00310728 -1.1822e-23)
(0.0551903 -0.00277958 1.08713e-21)
(0.055023 -0.00246644 4.79884e-24)
(0.0548071 -0.00217203 -2.30509e-21)
(0.0545272 -0.00189746 2.39177e-21)
(0.0541401 -0.00164567 1.26882e-21)
(0.0535763 -0.001395 0)
(0.0525741 -0.00127955 0)
(0.0380208 -0.0150872 -2.04584e-22)
(0.0383997 -0.0151275 -9.26137e-22)
(0.0387816 -0.0151566 7.3573e-22)
(0.0391649 -0.0151748 0)
(0.0395497 -0.0151825 1.49664e-22)
(0.0399359 -0.0151798 4.91512e-22)
(0.040323 -0.0151666 -3.80851e-22)
(0.0407106 -0.0151427 4.64261e-22)
(0.0410982 -0.0151082 -3.69473e-22)
(0.0414855 -0.0150629 0)
(0.041872 -0.015007 -7.42757e-23)
(0.0422573 -0.0149404 0)
(0.0426411 -0.0148633 -1.1948e-23)
(0.0430228 -0.0147757 1.15515e-22)
(0.0434022 -0.0146778 0)
(0.0437788 -0.0145698 0)
(0.0441522 -0.0144519 0)
(0.0445222 -0.0143244 -1.44464e-22)
(0.0448884 -0.0141875 1.9527e-22)
(0.0452505 -0.0140416 1.20959e-22)
(0.0456082 -0.0138871 0)
(0.0459615 -0.0137242 0)
(0.04631 -0.0135535 0)
(0.0466538 -0.0133754 -6.17786e-22)
(0.0469927 -0.0131903 7.5952e-22)
(0.0473267 -0.0129987 -3.99922e-22)
(0.047656 -0.0128012 -3.02976e-22)
(0.0479807 -0.0125981 3.33838e-22)
(0.048301 -0.0123901 -3.33736e-22)