/*--------------------------------*- C++ -*----------------------------------*\
| =========                 |                                                 |
| \\      /  F ield         | OpenFOAM: The Open Source CFD Toolbox           |
|  \\    /   O peration     | Version:  2312                                  |
|   \\  /    A nd           | Website:  www.openfoam.com                      |
|    \\/     M anipulation  |                                                 |
\*---------------------------------------------------------------------------*/
FoamFile
{
    version     2.0;
    format      ascii;
    arch        "LSB;label=32;scalar=64";
    class       volScalarField;
    location    "1200";
    object      nut;
}
// * * * * * * * * * * * * * * * * * * * * * * * * * * * * * * * * * * * * * //

dimensions      [0 2 -1 0 0 0 0];

internalField   nonuniform List<scalar> 
76025
(
6.33182e-06
6.33574e-06
6.33803e-06
6.34146e-06
6.34805e-06
6.35696e-06
6.36789e-06
6.37817e-06
6.38718e-06
6.39604e-06
6.40556e-06
6.41496e-06
6.42317e-06
6.42926e-06
6.43447e-06
6.44034e-06
6.44581e-06
6.45143e-06
6.45577e-06
6.45918e-06
6.45798e-06
6.45554e-06
6.45723e-06
6.463e-06
6.47128e-06
6.48108e-06
6.49411e-06
6.50683e-06
6.52126e-06
6.53754e-06
6.55564e-06
6.57084e-06
6.5862e-06
6.59757e-06
6.6064e-06
6.61021e-06
6.61153e-06
6.61107e-06
6.60743e-06
6.60057e-06
6.59156e-06
6.58102e-06
6.56825e-06
6.55658e-06
6.54177e-06
6.53502e-06
6.53201e-06
6.5284e-06
6.5234e-06
6.51634e-06
6.50721e-06
6.49639e-06
6.48472e-06
6.4733e-06
6.46199e-06
6.44833e-06
6.42875e-06
6.39877e-06
6.35268e-06
6.28404e-06
6.19176e-06
6.06231e-06
5.8832e-06
5.63261e-06
5.29478e-06
5.00869e-06
5.83922e-06
1.35021e-05
4.67965e-05
6.31073e-06
6.32446e-06
6.33455e-06
6.34141e-06
6.34728e-06
6.35232e-06
6.35908e-06
6.36716e-06
6.37585e-06
6.38447e-06
6.39323e-06
6.40226e-06
6.41154e-06
6.42049e-06
6.42784e-06
6.43485e-06
6.44092e-06
6.44675e-06
6.45208e-06
6.45718e-06
6.46089e-06
6.46302e-06
6.46429e-06
6.46545e-06
6.46269e-06
6.4599e-06
6.45806e-06
6.45687e-06
6.45628e-06
6.456e-06
6.45581e-06
6.45622e-06
6.45723e-06
6.4587e-06
6.46086e-06
6.46283e-06
6.4702e-06
6.47963e-06
6.48971e-06
6.49973e-06
6.50917e-06
6.51749e-06
6.52402e-06
6.52813e-06
6.52933e-06
6.52727e-06
6.52175e-06
6.51308e-06
6.50211e-06
6.49002e-06
6.47799e-06
6.4669e-06
6.45682e-06
6.4466e-06
6.43368e-06
6.41466e-06
6.38538e-06
6.34144e-06
6.27849e-06
6.19215e-06
6.07542e-06
5.91836e-06
5.70413e-06
5.40993e-06
5.04339e-06
4.90992e-06
6.98076e-06
2.16399e-05
6.90526e-05
6.26521e-06
6.28283e-06
6.30028e-06
6.31579e-06
6.32891e-06
6.33957e-06
6.34847e-06
6.35661e-06
6.36462e-06
6.37267e-06
6.38073e-06
6.38887e-06
6.39718e-06
6.40572e-06
6.41415e-06
6.42226e-06
6.42989e-06
6.43702e-06
6.44367e-06
6.44992e-06
6.45579e-06
6.46115e-06
6.46585e-06
6.46995e-06
6.47307e-06
6.47539e-06
6.47726e-06
6.479e-06
6.48089e-06
6.48318e-06
6.48596e-06
6.489e-06
6.49234e-06
6.49599e-06
6.49992e-06
6.50403e-06
6.50821e-06
6.51221e-06
6.51566e-06
6.51811e-06
6.51909e-06
6.51817e-06
6.51502e-06
6.5095e-06
6.50171e-06
6.49206e-06
6.48124e-06
6.47012e-06
6.45957e-06
6.4502e-06
6.44208e-06
6.43451e-06
6.42583e-06
6.41353e-06
6.39445e-06
6.36511e-06
6.322e-06
6.26174e-06
6.18065e-06
6.07378e-06
5.93339e-06
5.7464e-06
5.49261e-06
5.15336e-06
4.7912e-06
5.02316e-06
9.53468e-06
3.54293e-05
9.31446e-05
6.23112e-06
6.23866e-06
6.24945e-06
6.26215e-06
6.27845e-06
6.2954e-06
6.31126e-06
6.32544e-06
6.338e-06
6.34926e-06
6.35954e-06
6.36909e-06
6.3781e-06
6.38678e-06
6.39529e-06
6.40363e-06
6.41177e-06
6.41963e-06
6.42716e-06
6.43433e-06
6.44116e-06
6.44767e-06
6.45382e-06
6.45959e-06
6.46499e-06
6.46997e-06
6.47454e-06
6.47873e-06
6.48262e-06
6.48624e-06
6.48958e-06
6.49266e-06
6.49544e-06
6.49784e-06
6.49976e-06
6.50103e-06
6.50145e-06
6.5008e-06
6.49887e-06
6.49547e-06
6.49051e-06
6.48399e-06
6.4761e-06
6.46721e-06
6.45783e-06
6.44858e-06
6.44006e-06
6.43268e-06
6.42647e-06
6.42092e-06
6.41487e-06
6.40649e-06
6.39341e-06
6.37292e-06
6.34223e-06
6.29864e-06
6.23954e-06
6.16209e-06
6.06237e-06
5.93416e-06
5.76718e-06
5.54506e-06
5.24659e-06
4.87031e-06
4.58942e-06
5.58424e-06
1.48974e-05
5.5299e-05
0.000117065
6.23189e-06
6.22795e-06
6.22639e-06
6.22801e-06
6.23333e-06
6.24182e-06
6.25234e-06
6.26631e-06
6.28217e-06
6.29797e-06
6.31281e-06
6.3265e-06
6.33906e-06
6.35058e-06
6.36125e-06
6.37122e-06
6.38059e-06
6.38947e-06
6.39787e-06
6.40584e-06
6.41336e-06
6.42045e-06
6.42713e-06
6.43338e-06
6.4392e-06
6.44458e-06
6.4495e-06
6.45393e-06
6.45784e-06
6.4612e-06
6.4639e-06
6.46591e-06
6.46717e-06
6.4676e-06
6.46709e-06
6.46555e-06
6.46291e-06
6.45915e-06
6.45428e-06
6.44844e-06
6.44185e-06
6.43483e-06
6.42778e-06
6.42114e-06
6.41527e-06
6.4104e-06
6.40645e-06
6.40298e-06
6.39907e-06
6.39334e-06
6.38398e-06
6.36895e-06
6.34605e-06
6.31315e-06
6.26824e-06
6.20934e-06
6.13422e-06
6.03965e-06
5.92047e-06
5.76831e-06
5.57005e-06
5.30699e-06
4.96264e-06
4.57717e-06
4.53069e-06
7.09485e-06
2.51949e-05
7.91982e-05
0.000138653
6.26067e-06
6.2547e-06
6.24674e-06
6.23734e-06
6.23013e-06
6.22565e-06
6.2241e-06
6.22577e-06
6.23043e-06
6.23738e-06
6.24822e-06
6.26183e-06
6.27609e-06
6.29004e-06
6.30332e-06
6.3158e-06
6.32744e-06
6.33827e-06
6.34834e-06
6.35768e-06
6.36633e-06
6.37432e-06
6.38167e-06
6.38838e-06
6.39446e-06
6.39991e-06
6.40471e-06
6.40884e-06
6.41228e-06
6.41494e-06
6.41673e-06
6.41766e-06
6.41771e-06
6.41689e-06
6.41522e-06
6.41276e-06
6.40961e-06
6.40593e-06
6.40193e-06
6.39786e-06
6.39402e-06
6.39066e-06
6.38796e-06
6.38595e-06
6.38446e-06
6.38303e-06
6.38088e-06
6.37691e-06
6.36977e-06
6.35788e-06
6.33962e-06
6.31335e-06
6.27751e-06
6.23065e-06
6.17124e-06
6.09744e-06
6.00649e-06
5.89393e-06
5.75267e-06
5.57194e-06
5.33628e-06
5.02737e-06
4.64546e-06
4.3164e-06
4.80369e-06
1.06717e-05
4.22463e-05
0.000104045
0.000156601
6.26598e-06
6.26968e-06
6.26966e-06
6.2663e-06
6.2607e-06
6.25387e-06
6.2466e-06
6.23935e-06
6.23269e-06
6.22771e-06
6.22577e-06
6.22757e-06
6.23288e-06
6.2407e-06
6.25e-06
6.26002e-06
6.27027e-06
6.2804e-06
6.29022e-06
6.29958e-06
6.30841e-06
6.31664e-06
6.32424e-06
6.33118e-06
6.33745e-06
6.34302e-06
6.34787e-06
6.35202e-06
6.35542e-06
6.35803e-06
6.35991e-06
6.36114e-06
6.3618e-06
6.36197e-06
6.36176e-06
6.36132e-06
6.36079e-06
6.36034e-06
6.36011e-06
6.36021e-06
6.36064e-06
6.3613e-06
6.36193e-06
6.36205e-06
6.36099e-06
6.35788e-06
6.35169e-06
6.34125e-06
6.32539e-06
6.30289e-06
6.27264e-06
6.23352e-06
6.18445e-06
6.12417e-06
6.05104e-06
5.96255e-06
5.85473e-06
5.72134e-06
5.55322e-06
5.33765e-06
5.05831e-06
4.70352e-06
4.31358e-06
4.17772e-06
5.82313e-06
1.84046e-05
6.53565e-05
0.000127334
0.000170458
6.2254e-06
6.24168e-06
6.25412e-06
6.26284e-06
6.26808e-06
6.27021e-06
6.26972e-06
6.26713e-06
6.26301e-06
6.25803e-06
6.25296e-06
6.24865e-06
6.24573e-06
6.2445e-06
6.24497e-06
6.24697e-06
6.25024e-06
6.25451e-06
6.2595e-06
6.26494e-06
6.27064e-06
6.2764e-06
6.28209e-06
6.28759e-06
6.29281e-06
6.29768e-06
6.30215e-06
6.30621e-06
6.30978e-06
6.31299e-06
6.31594e-06
6.31871e-06
6.32136e-06
6.32393e-06
6.32648e-06
6.32906e-06
6.33168e-06
6.33429e-06
6.33679e-06
6.33898e-06
6.34053e-06
6.34102e-06
6.33986e-06
6.3364e-06
6.32985e-06
6.3194e-06
6.30421e-06
6.28346e-06
6.25633e-06
6.22204e-06
6.17975e-06
6.12856e-06
6.06732e-06
5.99443e-06
5.90749e-06
5.80281e-06
5.67477e-06
5.51537e-06
5.31389e-06
5.05669e-06
4.7299e-06
4.3418e-06
4.01599e-06
4.35344e-06
8.59305e-06
3.31704e-05
9.14177e-05
0.000147499
0.000180626
6.1516e-06
6.17429e-06
6.19493e-06
6.21329e-06
6.2291e-06
6.24215e-06
6.25241e-06
6.25996e-06
6.26502e-06
6.26789e-06
6.26895e-06
6.26867e-06
6.2676e-06
6.2662e-06
6.2649e-06
6.26395e-06
6.26355e-06
6.26376e-06
6.26461e-06
6.26605e-06
6.26801e-06
6.2704e-06
6.27313e-06
6.27612e-06
6.27927e-06
6.28251e-06
6.2858e-06
6.28905e-06
6.29229e-06
6.29556e-06
6.2989e-06
6.30228e-06
6.30567e-06
6.30899e-06
6.31215e-06
6.315e-06
6.31735e-06
6.31896e-06
6.31952e-06
6.31862e-06
6.31582e-06
6.31062e-06
6.30246e-06
6.29079e-06
6.27504e-06
6.25465e-06
6.22906e-06
6.19768e-06
6.15989e-06
6.11496e-06
6.062e-06
5.99983e-06
5.92683e-06
5.84062e-06
5.73764e-06
5.61271e-06
5.45874e-06
5.26652e-06
5.02469e-06
4.72047e-06
4.35014e-06
3.96983e-06
3.86575e-06
5.30289e-06
1.54097e-05
5.60655e-05
0.000117209
0.000163782
0.000188023
6.07513e-06
6.09361e-06
6.11282e-06
6.13293e-06
6.15298e-06
6.17211e-06
6.18976e-06
6.20559e-06
6.21941e-06
6.23116e-06
6.24089e-06
6.2487e-06
6.2548e-06
6.25946e-06
6.26296e-06
6.2656e-06
6.26762e-06
6.26926e-06
6.2707e-06
6.27207e-06
6.27347e-06
6.27495e-06
6.27656e-06
6.27829e-06
6.28015e-06
6.2821e-06
6.28413e-06
6.28618e-06
6.28825e-06
6.29026e-06
6.29215e-06
6.29383e-06
6.29515e-06
6.29596e-06
6.29604e-06
6.29516e-06
6.29303e-06
6.28934e-06
6.28376e-06
6.27592e-06
6.26545e-06
6.25198e-06
6.23512e-06
6.21448e-06
6.18966e-06
6.1602e-06
6.1256e-06
6.08523e-06
6.03833e-06
5.98394e-06
5.92083e-06
5.84729e-06
5.76091e-06
5.65821e-06
5.5343e-06
5.38279e-06
5.19578e-06
4.96372e-06
4.67558e-06
4.32384e-06
3.93382e-06
3.66426e-06
4.13044e-06
8.28149e-06
3.02388e-05
8.43421e-05
0.000140523
0.000176097
0.000193774
6.01405e-06
6.02287e-06
6.03257e-06
6.0438e-06
6.05704e-06
6.0739e-06
6.09297e-06
6.11241e-06
6.13116e-06
6.14872e-06
6.16482e-06
6.17936e-06
6.19229e-06
6.20363e-06
6.21348e-06
6.22194e-06
6.22918e-06
6.23533e-06
6.24056e-06
6.245e-06
6.24878e-06
6.25202e-06
6.25478e-06
6.25715e-06
6.25914e-06
6.2608e-06
6.2621e-06
6.26303e-06
6.26346e-06
6.26332e-06
6.26252e-06
6.26096e-06
6.25846e-06
6.25487e-06
6.24998e-06
6.24358e-06
6.23543e-06
6.22531e-06
6.21296e-06
6.19813e-06
6.18055e-06
6.15995e-06
6.13598e-06
6.10828e-06
6.07638e-06
6.03972e-06
5.99762e-06
5.94923e-06
5.89353e-06
5.82919e-06
5.75444e-06
5.66683e-06
5.56291e-06
5.43802e-06
5.28626e-06
5.10082e-06
4.8739e-06
4.59608e-06
4.25897e-06
3.87359e-06
3.53697e-06
3.6195e-06
5.5507e-06
1.6601e-05
5.57168e-05
0.000113781
0.000160036
0.000184839
0.000198698
5.96588e-06
5.96959e-06
5.97303e-06
5.97697e-06
5.98195e-06
5.98862e-06
5.99707e-06
6.00737e-06
6.02069e-06
6.03691e-06
6.05425e-06
6.07146e-06
6.08793e-06
6.10333e-06
6.11751e-06
6.1304e-06
6.14199e-06
6.1523e-06
6.16137e-06
6.16927e-06
6.17606e-06
6.1818e-06
6.18655e-06
6.19035e-06
6.19323e-06
6.19521e-06
6.19627e-06
6.19633e-06
6.19532e-06
6.1932e-06
6.18992e-06
6.18539e-06
6.1795e-06
6.17213e-06
6.16314e-06
6.1524e-06
6.13975e-06
6.125e-06
6.10797e-06
6.0884e-06
6.06603e-06
6.04049e-06
6.01136e-06
5.97811e-06
5.94012e-06
5.89663e-06
5.84675e-06
5.7894e-06
5.7232e-06
5.64632e-06
5.55623e-06
5.44947e-06
5.32156e-06
5.16708e-06
4.98005e-06
4.75421e-06
4.48199e-06
4.15489e-06
3.77699e-06
3.41384e-06
3.32128e-06
4.37728e-06
1.05442e-05
3.63084e-05
8.87065e-05
0.000141154
0.000175145
0.000190697
0.000202045
5.9255e-06
5.92634e-06
5.92654e-06
5.92655e-06
5.92671e-06
5.92724e-06
5.92833e-06
5.93025e-06
5.93345e-06
5.93822e-06
5.9448e-06
5.95398e-06
5.96599e-06
5.97963e-06
5.99373e-06
6.00755e-06
6.02068e-06
6.03285e-06
6.04394e-06
6.05386e-06
6.06256e-06
6.07002e-06
6.07623e-06
6.08117e-06
6.08484e-06
6.08723e-06
6.08828e-06
6.0879e-06
6.08614e-06
6.08299e-06
6.07843e-06
6.07238e-06
6.06476e-06
6.05547e-06
6.04441e-06
6.03143e-06
6.01635e-06
5.99896e-06
5.97899e-06
5.95612e-06
5.92992e-06
5.89993e-06
5.86556e-06
5.82617e-06
5.78096e-06
5.72904e-06
5.66929e-06
5.60029e-06
5.5201e-06
5.42611e-06
5.31481e-06
5.18186e-06
5.02235e-06
4.83115e-06
4.60304e-06
4.33225e-06
4.01138e-06
3.64036e-06
3.26839e-06
3.09415e-06
3.75416e-06
7.82624e-06
2.5654e-05
6.98514e-05
0.000123242
0.000164338
0.00018598
0.000195085
0.000203743
5.88421e-06
5.88347e-06
5.88214e-06
5.88036e-06
5.87833e-06
5.87616e-06
5.8739e-06
5.87162e-06
5.86943e-06
5.8675e-06
5.8661e-06
5.8656e-06
5.86653e-06
5.86944e-06
5.87491e-06
5.8828e-06
5.89218e-06
5.90214e-06
5.91202e-06
5.92138e-06
5.92994e-06
5.93748e-06
5.94388e-06
5.94902e-06
5.95284e-06
5.95525e-06
5.95614e-06
5.95557e-06
5.95359e-06
5.95015e-06
5.94516e-06
5.93851e-06
5.9301e-06
5.91978e-06
5.90736e-06
5.89263e-06
5.87533e-06
5.85514e-06
5.8317e-06
5.80456e-06
5.77321e-06
5.73709e-06
5.69554e-06
5.64779e-06
5.59293e-06
5.52981e-06
5.45688e-06
5.37209e-06
5.27264e-06
5.15502e-06
5.01509e-06
4.84849e-06
4.65098e-06
4.41835e-06
4.14562e-06
3.82742e-06
3.46326e-06
3.0924e-06
2.88545e-06
3.36956e-06
6.5449e-06
2.05677e-05
5.86782e-05
0.000110313
0.000154714
0.000182103
0.000193133
0.000199229
0.000204137
5.83367e-06
5.8317e-06
5.82966e-06
5.82722e-06
5.82441e-06
5.82125e-06
5.81775e-06
5.81392e-06
5.80975e-06
5.80526e-06
5.80048e-06
5.79551e-06
5.79055e-06
5.78595e-06
5.78228e-06
5.78027e-06
5.7806e-06
5.78334e-06
5.7878e-06
5.79315e-06
5.79872e-06
5.80401e-06
5.80866e-06
5.81239e-06
5.81504e-06
5.81635e-06
5.81626e-06
5.81481e-06
5.81192e-06
5.80746e-06
5.80125e-06
5.79312e-06
5.78287e-06
5.77025e-06
5.75502e-06
5.73687e-06
5.71545e-06
5.69037e-06
5.66121e-06
5.62747e-06
5.58859e-06
5.54394e-06
5.49275e-06
5.43403e-06
5.36652e-06
5.28849e-06
5.19764e-06
5.09107e-06
4.96531e-06
4.81662e-06
4.64134e-06
4.43606e-06
4.19738e-06
3.92101e-06
3.60245e-06
3.24541e-06
2.88664e-06
2.68015e-06
3.11083e-06
5.98098e-06
1.86546e-05
5.40643e-05
0.000104105
0.000149337
0.000180123
0.000194233
0.00019717
0.000201353
0.000203268
5.76755e-06
5.76497e-06
5.76223e-06
5.75927e-06
5.756e-06
5.75237e-06
5.74834e-06
5.74389e-06
5.73898e-06
5.73359e-06
5.72769e-06
5.72124e-06
5.71425e-06
5.70677e-06
5.69896e-06
5.69105e-06
5.68346e-06
5.67694e-06
5.67241e-06
5.67022e-06
5.66978e-06
5.67027e-06
5.67098e-06
5.6714e-06
5.67109e-06
5.66969e-06
5.66708e-06
5.66316e-06
5.65768e-06
5.65039e-06
5.64104e-06
5.62936e-06
5.6151e-06
5.59795e-06
5.57761e-06
5.55372e-06
5.52592e-06
5.49376e-06
5.45677e-06
5.4144e-06
5.36596e-06
5.31062e-06
5.24722e-06
5.17425e-06
5.08972e-06
4.99114e-06
4.8756e-06
4.73997e-06
4.58115e-06
4.3963e-06
4.18276e-06
3.93736e-06
3.65658e-06
3.33777e-06
2.98868e-06
2.65562e-06
2.48414e-06
2.94738e-06
5.88294e-06
1.87524e-05
5.42714e-05
0.000103993
0.000149296
0.000181521
0.000198197
0.000201557
0.000198955
0.000201957
0.000201149
5.6812e-06
5.67855e-06
5.67539e-06
5.67187e-06
5.66799e-06
5.66374e-06
5.65908e-06
5.65397e-06
5.64837e-06
5.64226e-06
5.63558e-06
5.6283e-06
5.62036e-06
5.61172e-06
5.60235e-06
5.59224e-06
5.58148e-06
5.57022e-06
5.55862e-06
5.54694e-06
5.53592e-06
5.5267e-06
5.51955e-06
5.51373e-06
5.50793e-06
5.50145e-06
5.49409e-06
5.48555e-06
5.47546e-06
5.46344e-06
5.44912e-06
5.43219e-06
5.41229e-06
5.38908e-06
5.36218e-06
5.33119e-06
5.29567e-06
5.25511e-06
5.2089e-06
5.15622e-06
5.09601e-06
5.02684e-06
4.9469e-06
4.854e-06
4.74565e-06
4.61927e-06
4.47245e-06
4.30301e-06
4.10884e-06
3.88756e-06
3.63603e-06
3.35098e-06
3.03446e-06
2.70137e-06
2.40785e-06
2.31479e-06
2.90242e-06
6.2063e-06
2.0383e-05
5.77724e-05
0.000108047
0.00015336
0.00018617
0.000204507
0.000209752
0.000206156
0.000202422
0.000202228
0.000198717
5.57214e-06
5.56914e-06
5.56552e-06
5.56137e-06
5.55674e-06
5.55163e-06
5.54603e-06
5.53993e-06
5.53328e-06
5.52607e-06
5.51824e-06
5.50977e-06
5.50059e-06
5.49066e-06
5.47992e-06
5.4683e-06
5.45576e-06
5.44225e-06
5.42774e-06
5.41225e-06
5.39584e-06
5.37859e-06
5.36046e-06
5.34136e-06
5.32157e-06
5.30279e-06
5.28645e-06
5.27107e-06
5.25485e-06
5.23683e-06
5.21647e-06
5.19328e-06
5.16677e-06
5.13647e-06
5.10195e-06
5.06269e-06
5.01809e-06
4.96736e-06
4.90941e-06
4.84282e-06
4.76583e-06
4.67648e-06
4.5727e-06
4.45252e-06
4.31413e-06
4.15607e-06
3.97703e-06
3.77517e-06
3.54776e-06
3.29149e-06
3.00531e-06
2.69656e-06
2.39566e-06
2.16704e-06
2.18963e-06
3.01816e-06
7.01886e-06
2.33106e-05
6.3108e-05
0.000113803
0.000158861
0.000191999
0.000211812
0.00021919
0.0002164
0.000208516
0.000204528
0.000202272
0.00019655
5.43752e-06
5.43348e-06
5.42884e-06
5.42364e-06
5.4179e-06
5.41159e-06
5.40471e-06
5.39722e-06
5.38911e-06
5.38034e-06
5.37087e-06
5.36066e-06
5.34966e-06
5.33781e-06
5.32506e-06
5.31134e-06
5.29657e-06
5.28068e-06
5.26358e-06
5.24519e-06
5.22544e-06
5.20423e-06
5.18148e-06
5.15711e-06
5.13099e-06
5.10298e-06
5.07288e-06
5.04062e-06
5.0077e-06
4.97625e-06
4.94505e-06
4.91199e-06
4.87588e-06
4.83595e-06
4.79134e-06
4.74103e-06
4.68377e-06
4.61803e-06
4.54193e-06
4.45368e-06
4.35175e-06
4.23494e-06
4.10228e-06
3.95293e-06
3.78591e-06
3.60003e-06
3.39313e-06
3.16191e-06
2.90428e-06
2.62365e-06
2.33784e-06
2.08887e-06
1.96936e-06
2.16567e-06
3.36757e-06
8.43199e-06
2.72405e-05
6.872e-05
0.000118743
0.000162801
0.000196027
0.0002176
0.00022789
0.000227841
0.000219495
0.000208837
0.000206037
0.000202899
0.000195763
5.27062e-06
5.26495e-06
5.25866e-06
5.25181e-06
5.24437e-06
5.23631e-06
5.22762e-06
5.21823e-06
5.20813e-06
5.19725e-06
5.18557e-06
5.17301e-06
5.15953e-06
5.14506e-06
5.12953e-06
5.11286e-06
5.09497e-06
5.07576e-06
5.05513e-06
5.03295e-06
5.00912e-06
4.98348e-06
4.95588e-06
4.92623e-06
4.89434e-06
4.86e-06
4.82297e-06
4.78295e-06
4.73968e-06
4.69277e-06
4.6419e-06
4.58869e-06
4.53534e-06
4.47974e-06
4.41878e-06
4.34994e-06
4.2711e-06
4.18036e-06
4.07642e-06
3.95982e-06
3.83081e-06
3.68888e-06
3.53303e-06
3.36152e-06
3.17193e-06
2.96243e-06
2.73147e-06
2.48011e-06
2.22046e-06
1.98112e-06
1.82266e-06
1.84734e-06
2.32498e-06
4.10709e-06
1.06106e-05
3.16687e-05
7.3033e-05
0.000120692
0.00016272
0.000195706
0.000219201
0.000233085
0.0002373
0.000232264
0.000220936
0.000210542
0.000208215
0.000204967
0.000197352
5.05812e-06
5.05041e-06
5.04201e-06
5.03297e-06
5.02328e-06
5.0129e-06
5.00178e-06
4.98988e-06
4.97714e-06
4.96351e-06
4.94892e-06
4.93331e-06
4.9166e-06
4.89871e-06
4.87956e-06
4.85904e-06
4.83705e-06
4.81346e-06
4.78815e-06
4.76097e-06
4.73175e-06
4.70032e-06
4.66651e-06
4.63012e-06
4.59089e-06
4.54857e-06
4.50285e-06
4.45339e-06
4.39981e-06
4.34167e-06
4.27846e-06
4.2096e-06
4.13447e-06
4.0521e-06
3.96129e-06
3.86092e-06
3.7497e-06
3.6267e-06
3.49578e-06
3.36094e-06
3.21753e-06
3.06029e-06
2.88664e-06
2.69519e-06
2.48657e-06
2.26506e-06
2.03947e-06
1.82636e-06
1.67186e-06
1.64269e-06
1.89323e-06
2.77909e-06
5.41564e-06
1.35663e-05
3.571e-05
7.45545e-05
0.000118077
0.000157172
0.000189616
0.000214969
0.000232567
0.000241628
0.000241681
0.000233639
0.00022152
0.000213304
0.000211528
0.000208843
0.000201625
4.77761e-06
4.76748e-06
4.75654e-06
4.74485e-06
4.73237e-06
4.71907e-06
4.70489e-06
4.68978e-06
4.67367e-06
4.65649e-06
4.63817e-06
4.61861e-06
4.59772e-06
4.57541e-06
4.55155e-06
4.52601e-06
4.49867e-06
4.46937e-06
4.43793e-06
4.40417e-06
4.36787e-06
4.32887e-06
4.28699e-06
4.24193e-06
4.19339e-06
4.141e-06
4.08436e-06
4.02303e-06
3.9565e-06
3.8842e-06
3.80538e-06
3.71913e-06
3.62438e-06
3.51973e-06
3.40447e-06
3.27829e-06
3.1428e-06
2.99913e-06
2.85741e-06
2.70663e-06
2.54238e-06
2.36433e-06
2.1758e-06
1.98212e-06
1.79337e-06
1.62553e-06
1.50529e-06
1.46883e-06
1.63892e-06
2.21503e-06
3.71585e-06
7.48077e-06
1.69284e-05
3.80433e-05
7.18829e-05
0.000109925
0.00014567
0.00017737
0.000204207
0.000225069
0.000238801
0.00024448
0.000241821
0.000232267
0.000220357
0.000215689
0.000215421
0.000214005
0.000208048
4.3949e-06
4.38189e-06
4.36794e-06
4.35309e-06
4.33729e-06
4.32049e-06
4.30264e-06
4.28366e-06
4.26347e-06
4.24198e-06
4.21911e-06
4.19474e-06
4.16876e-06
4.14103e-06
4.11142e-06
4.07977e-06
4.0459e-06
4.00962e-06
3.97073e-06
3.92898e-06
3.88415e-06
3.83603e-06
3.78425e-06
3.72847e-06
3.6683e-06
3.60331e-06
3.53301e-06
3.45682e-06
3.37403e-06
3.28374e-06
3.18477e-06
3.07633e-06
2.95724e-06
2.82974e-06
2.69486e-06
2.55661e-06
2.41975e-06
2.27674e-06
2.1247e-06
1.96504e-06
1.80267e-06
1.64331e-06
1.49977e-06
1.38476e-06
1.31586e-06
1.32901e-06
1.49011e-06
1.93676e-06
2.98913e-06
5.33195e-06
1.01867e-05
1.96091e-05
3.68985e-05
6.35634e-05
9.55517e-05
0.000128153
0.000159017
0.000186721
0.000209988
0.000227635
0.000238574
0.000241995
0.000237891
0.000227692
0.000215384
0.000216337
0.00021861
0.000219063
0.000215019
3.85886e-06
3.8425e-06
3.82506e-06
3.80654e-06
3.7869e-06
3.76607e-06
3.74399e-06
3.72056e-06
3.69569e-06
3.66927e-06
3.6412e-06
3.61134e-06
3.57956e-06
3.54569e-06
3.50958e-06
3.47102e-06
3.42983e-06
3.38576e-06
3.33856e-06
3.28803e-06
3.23401e-06
3.17608e-06
3.11384e-06
3.04684e-06
2.97452e-06
2.8963e-06
2.8115e-06
2.71943e-06
2.61914e-06
2.50946e-06
2.39218e-06
2.26876e-06
2.1384e-06
2.0183e-06
1.89669e-06
1.77129e-06
1.64389e-06
1.51568e-06
1.39182e-06
1.28369e-06
1.19927e-06
1.13849e-06
1.13757e-06
1.21252e-06
1.40746e-06
1.81707e-06
2.65003e-06
4.3309e-06
7.51168e-06
1.26793e-05
1.98806e-05
3.048e-05
4.81556e-05
7.40452e-05
0.000104111
0.000134183
0.000162112
0.000186759
0.000207168
0.000222361
0.000231403
0.000233657
0.000229187
0.000219388
0.000208686
0.000213979
0.000218962
0.000221453
0.000219619
3.10511e-06
3.08565e-06
3.06504e-06
3.04324e-06
3.02022e-06
2.99589e-06
2.97019e-06
2.94302e-06
2.91428e-06
2.88385e-06
2.85163e-06
2.81747e-06
2.78123e-06
2.74275e-06
2.70186e-06
2.65837e-06
2.61208e-06
2.56276e-06
2.51017e-06
2.45396e-06
2.39363e-06
2.32876e-06
2.25891e-06
2.18366e-06
2.1026e-06
2.01544e-06
1.92209e-06
1.82257e-06
1.71801e-06
1.60841e-06
1.51084e-06
1.4168e-06
1.32316e-06
1.23109e-06
1.14626e-06
1.07259e-06
1.01374e-06
9.62587e-07
9.35484e-07
9.57045e-07
1.0268e-06
1.16039e-06
1.39298e-06
1.79031e-06
2.48256e-06
3.71379e-06
5.87064e-06
9.23643e-06
1.32106e-05
1.63333e-05
1.89616e-05
2.62737e-05
4.43006e-05
7.1362e-05
0.000100825
0.0001288
0.000154042
0.000175999
0.000194039
0.000207378
0.000215217
0.000216913
0.000212192
0.00020159
0.000195476
0.000204563
0.000212474
0.000217009
0.000217209
2.09364e-06
2.07394e-06
2.05316e-06
2.03131e-06
2.00835e-06
1.98423e-06
1.95888e-06
1.93223e-06
1.90421e-06
1.87473e-06
1.84369e-06
1.811e-06
1.77655e-06
1.74022e-06
1.70189e-06
1.66144e-06
1.61883e-06
1.57344e-06
1.52486e-06
1.47292e-06
1.41763e-06
1.35905e-06
1.29741e-06
1.23308e-06
1.16665e-06
1.09894e-06
1.03112e-06
9.63777e-07
9.07073e-07
8.58744e-07
8.12768e-07
7.73659e-07
7.43945e-07
7.25223e-07
7.3352e-07
7.63029e-07
8.14788e-07
8.93471e-07
1.00624e-06
1.16498e-06
1.39137e-06
1.72658e-06
2.23816e-06
3.04331e-06
4.33312e-06
6.20728e-06
8.39557e-06
9.90878e-06
9.42294e-06
7.55468e-06
7.56177e-06
1.29847e-05
2.87556e-05
5.36996e-05
8.18286e-05
0.00010806
0.000131057
0.000150619
0.00016647
0.000178072
0.000184753
0.000185689
0.000180121
0.000171095
0.00016957
0.000179131
0.000191488
0.000198616
0.000200986
9.69525e-07
9.56633e-07
9.43252e-07
9.29426e-07
9.1515e-07
9.00397e-07
8.85132e-07
8.69315e-07
8.52906e-07
8.35864e-07
8.18146e-07
7.99717e-07
7.80562e-07
7.60665e-07
7.40014e-07
7.18546e-07
6.9626e-07
6.73606e-07
6.50979e-07
6.28695e-07
6.07088e-07
5.86528e-07
5.67414e-07
5.50146e-07
5.35392e-07
5.23732e-07
5.15969e-07
5.12026e-07
5.25684e-07
5.49698e-07
5.81831e-07
6.21862e-07
6.70139e-07
7.26955e-07
7.92621e-07
8.67316e-07
9.52255e-07
1.0517e-06
1.17595e-06
1.34785e-06
1.59968e-06
1.95146e-06
2.40889e-06
3.02848e-06
3.77953e-06
4.23714e-06
3.74956e-06
2.54905e-06
1.98446e-06
1.64123e-06
1.70334e-06
3.07821e-06
7.64967e-06
1.94455e-05
4.09507e-05
6.44015e-05
8.50639e-05
0.000101798
0.000114174
0.00012207
0.000125382
0.000126104
0.000125546
0.000123745
0.000124907
0.000131326
0.000139832
0.000150955
0.000158282
2.33879e-07
2.37777e-07
2.42756e-07
2.48245e-07
2.53984e-07
2.59839e-07
2.65721e-07
2.71566e-07
2.77324e-07
2.82961e-07
2.8841e-07
2.93809e-07
2.99788e-07
3.06564e-07
3.14247e-07
3.22979e-07
3.32868e-07
3.44001e-07
3.56459e-07
3.70315e-07
3.8562e-07
4.02386e-07
4.20567e-07
4.40025e-07
4.60507e-07
4.81602e-07
5.02718e-07
5.23017e-07
5.41462e-07
5.56781e-07
5.6757e-07
5.72486e-07
5.70597e-07
5.61823e-07
5.47202e-07
5.29464e-07
5.1454e-07
5.0756e-07
5.17614e-07
5.6609e-07
6.4702e-07
6.66936e-07
6.06259e-07
5.27868e-07
4.11691e-07
4.18306e-07
3.60103e-07
2.72042e-07
2.26798e-07
2.13948e-07
2.04864e-07
2.57901e-07
4.66237e-07
1.33658e-06
3.63439e-06
8.22952e-06
1.5238e-05
2.36895e-05
3.2172e-05
3.93446e-05
4.464e-05
4.85045e-05
5.13807e-05
5.34502e-05
5.58152e-05
5.90941e-05
6.29208e-05
6.70355e-05
6.91153e-05
1.37543e-07
1.42285e-07
1.47182e-07
1.52216e-07
1.57344e-07
1.62525e-07
1.67719e-07
1.72878e-07
1.77949e-07
1.8287e-07
1.87592e-07
1.91903e-07
1.95252e-07
1.97512e-07
1.98655e-07
1.98671e-07
1.97533e-07
1.95199e-07
1.9161e-07
1.86702e-07
1.80411e-07
1.72683e-07
1.6349e-07
1.52842e-07
1.40801e-07
1.27502e-07
1.13166e-07
9.81086e-08
8.27441e-08
6.75754e-08
5.31684e-08
4.01096e-08
2.89443e-08
2.00698e-08
1.3619e-08
9.59939e-09
7.1588e-09
4.9789e-09
2.94946e-09
2.12458e-09
2.66748e-09
2.63846e-09
2.15305e-09
2.03118e-09
2.00006e-09
2.06338e-09
1.76405e-09
1.33087e-09
9.7292e-10
6.72751e-10
5.14776e-10
6.79519e-10
1.20399e-09
2.34539e-09
6.02554e-09
1.71343e-08
4.54112e-08
9.89774e-08
1.75972e-07
2.73831e-07
3.80222e-07
4.88564e-07
5.92014e-07
6.91822e-07
8.03435e-07
8.97592e-07
9.66375e-07
9.94928e-07
9.2328e-07
6.15986e-06
6.15134e-06
6.14597e-06
6.14281e-06
6.14377e-06
6.15046e-06
6.15981e-06
6.16041e-06
6.15521e-06
6.15135e-06
6.1488e-06
6.14954e-06
6.15201e-06
6.15987e-06
6.16329e-06
6.15503e-06
6.14745e-06
6.14059e-06
6.13369e-06
6.13053e-06
6.11634e-06
6.08869e-06
6.08984e-06
6.09909e-06
6.10449e-06
6.10853e-06
6.11881e-06
6.12252e-06
6.12037e-06
6.11623e-06
6.1191e-06
6.11899e-06
6.10943e-06
6.10252e-06
6.11476e-06
6.13546e-06
6.14214e-06
6.13249e-06
6.1286e-06
6.12797e-06
6.13466e-06
6.1446e-06
6.16819e-06
6.19207e-06
6.20191e-06
6.21382e-06
6.22947e-06
6.24139e-06
6.24352e-06
6.23206e-06
6.22445e-06
6.22921e-06
6.24447e-06
6.25845e-06
6.27495e-06
6.2947e-06
6.30895e-06
6.31844e-06
6.32544e-06
6.14364e-06
6.14246e-06
6.14472e-06
6.15009e-06
6.15737e-06
6.15978e-06
6.15599e-06
6.14634e-06
6.1413e-06
6.14032e-06
6.14238e-06
6.14818e-06
6.15647e-06
6.15681e-06
6.14941e-06
6.14099e-06
6.13525e-06
6.12985e-06
6.12515e-06
6.11726e-06
6.09943e-06
6.07943e-06
6.08402e-06
6.09231e-06
6.09724e-06
6.10245e-06
6.11171e-06
6.1147e-06
6.11244e-06
6.10881e-06
6.11181e-06
6.11137e-06
6.10348e-06
6.09615e-06
6.10462e-06
6.12333e-06
6.13371e-06
6.1326e-06
6.1241e-06
6.12052e-06
6.12383e-06
6.13059e-06
6.14629e-06
6.16768e-06
6.1838e-06
6.19922e-06
6.21717e-06
6.23502e-06
6.24768e-06
6.24823e-06
6.23773e-06
6.22983e-06
6.22927e-06
6.23337e-06
6.24079e-06
6.25253e-06
6.26655e-06
6.28184e-06
6.29602e-06
6.14838e-06
6.1513e-06
6.15606e-06
6.15736e-06
6.15492e-06
6.14689e-06
6.13655e-06
6.13173e-06
6.13185e-06
6.1364e-06
6.14481e-06
6.15415e-06
6.15414e-06
6.14464e-06
6.13363e-06
6.12895e-06
6.12541e-06
6.11923e-06
6.11309e-06
6.10016e-06
6.0823e-06
6.07096e-06
6.07724e-06
6.08453e-06
6.08936e-06
6.09544e-06
6.10359e-06
6.10592e-06
6.10367e-06
6.10055e-06
6.10333e-06
6.10298e-06
6.09648e-06
6.08936e-06
6.09441e-06
6.11021e-06
6.12286e-06
6.13195e-06
6.12133e-06
6.11406e-06
6.11353e-06
6.11742e-06
6.12733e-06
6.14371e-06
6.16076e-06
6.17654e-06
6.19642e-06
6.21811e-06
6.23797e-06
6.25097e-06
6.25374e-06
6.24956e-06
6.23888e-06
6.2312e-06
6.22794e-06
6.229e-06
6.23389e-06
6.24159e-06
6.25114e-06
6.15547e-06
6.15404e-06
6.1505e-06
6.14279e-06
6.13285e-06
6.12575e-06
6.12297e-06
6.12553e-06
6.1327e-06
6.1435e-06
6.15138e-06
6.15053e-06
6.13978e-06
6.12637e-06
6.12011e-06
6.11802e-06
6.11384e-06
6.10628e-06
6.09671e-06
6.08149e-06
6.06697e-06
6.06239e-06
6.06924e-06
6.07571e-06
6.08069e-06
6.08726e-06
6.09433e-06
6.09609e-06
6.09391e-06
6.09125e-06
6.09373e-06
6.09357e-06
6.08817e-06
6.08153e-06
6.08387e-06
6.09644e-06
6.10969e-06
6.12427e-06
6.11972e-06
6.11009e-06
6.10462e-06
6.10478e-06
6.11025e-06
6.12152e-06
6.13619e-06
6.15105e-06
6.16757e-06
6.1881e-06
6.21251e-06
6.23457e-06
6.25018e-06
6.25826e-06
6.25795e-06
6.25266e-06
6.2426e-06
6.23451e-06
6.22922e-06
6.22707e-06
6.22766e-06
6.14384e-06
6.13551e-06
6.12675e-06
6.11879e-06
6.11541e-06
6.11613e-06
6.12145e-06
6.13075e-06
6.14222e-06
6.14768e-06
6.14426e-06
6.13189e-06
6.11779e-06
6.11015e-06
6.10796e-06
6.1056e-06
6.09914e-06
6.08946e-06
6.07726e-06
6.06285e-06
6.05309e-06
6.05305e-06
6.05984e-06
6.06573e-06
6.07099e-06
6.07769e-06
6.08374e-06
6.08505e-06
6.08298e-06
6.0807e-06
6.08287e-06
6.08289e-06
6.07839e-06
6.07238e-06
6.07271e-06
6.08207e-06
6.09455e-06
6.11081e-06
6.1149e-06
6.10748e-06
6.09855e-06
6.09402e-06
6.09485e-06
6.10115e-06
6.11189e-06
6.12466e-06
6.13839e-06
6.15407e-06
6.17289e-06
6.19808e-06
6.22248e-06
6.2421e-06
6.25522e-06
6.26181e-06
6.26238e-06
6.25913e-06
6.2538e-06
6.24482e-06
6.23764e-06
6.11842e-06
6.11011e-06
6.10758e-06
6.10792e-06
6.11218e-06
6.11978e-06
6.13021e-06
6.13909e-06
6.14079e-06
6.13368e-06
6.1196e-06
6.10652e-06
6.0985e-06
6.09581e-06
6.09426e-06
6.08949e-06
6.08048e-06
6.06913e-06
6.05641e-06
6.0449e-06
6.03974e-06
6.04246e-06
6.04889e-06
6.05444e-06
6.05996e-06
6.06651e-06
6.07164e-06
6.07257e-06
6.07064e-06
6.06868e-06
6.07054e-06
6.07075e-06
6.06701e-06
6.06174e-06
6.06067e-06
6.06704e-06
6.07777e-06
6.09319e-06
6.10359e-06
6.10244e-06
6.09426e-06
6.08637e-06
6.08235e-06
6.08334e-06
6.08918e-06
6.09843e-06
6.10947e-06
6.12165e-06
6.13521e-06
6.15277e-06
6.17314e-06
6.19804e-06
6.22109e-06
6.23961e-06
6.2529e-06
6.26132e-06
6.26571e-06
6.26594e-06
6.26436e-06
6.10258e-06
6.10009e-06
6.1045e-06
6.11112e-06
6.11993e-06
6.12764e-06
6.13095e-06
6.1277e-06
6.11709e-06
6.10311e-06
6.09172e-06
6.08438e-06
6.0815e-06
6.08009e-06
6.07655e-06
6.06891e-06
6.05817e-06
6.04643e-06
6.03522e-06
6.02746e-06
6.02601e-06
6.0302e-06
6.03622e-06
6.0416e-06
6.0473e-06
6.05349e-06
6.0578e-06
6.05845e-06
6.05665e-06
6.05495e-06
6.05651e-06
6.05691e-06
6.05388e-06
6.04935e-06
6.04741e-06
6.0512e-06
6.05962e-06
6.07306e-06
6.08619e-06
6.0916e-06
6.0881e-06
6.08045e-06
6.07329e-06
6.06938e-06
6.06979e-06
6.07422e-06
6.08153e-06
6.09056e-06
6.10056e-06
6.1122e-06
6.12587e-06
6.14294e-06
6.16196e-06
6.18438e-06
6.20588e-06
6.22444e-06
6.23952e-06
6.2508e-06
6.25939e-06
6.10146e-06
6.10322e-06
6.11043e-06
6.11452e-06
6.11645e-06
6.1139e-06
6.10594e-06
6.0942e-06
6.08277e-06
6.07314e-06
6.06728e-06
6.06456e-06
6.06313e-06
6.0602e-06
6.05385e-06
6.04419e-06
6.03306e-06
6.02245e-06
6.01402e-06
6.00991e-06
6.01108e-06
6.01593e-06
6.02158e-06
6.02691e-06
6.03265e-06
6.03837e-06
6.04196e-06
6.04238e-06
6.04073e-06
6.03923e-06
6.0405e-06
6.04109e-06
6.0387e-06
6.03488e-06