/*--------------------------------*- C++ -*----------------------------------*\
| =========                 |                                                 |
| \\      /  F ield         | OpenFOAM: The Open Source CFD Toolbox           |
|  \\    /   O peration     | Version:  2312                                  |
|   \\  /    A nd           | Website:  www.openfoam.com                      |
|    \\/     M anipulation  |                                                 |
\*---------------------------------------------------------------------------*/
FoamFile
{
    version     2.0;
    format      ascii;
    arch        "LSB;label=32;scalar=64";
    class       volScalarField;
    location    "1200";
    object      nuTilda;
}
// * * * * * * * * * * * * * * * * * * * * * * * * * * * * * * * * * * * * * //

dimensions      [0 2 -1 0 0 0 0];

internalField   nonuniform List<scalar> 
76025
(
4.04848e-05
4.04919e-05
4.0496e-05
4.05022e-05
4.05141e-05
4.05302e-05
4.055e-05
4.05685e-05
4.05848e-05
4.06007e-05
4.06178e-05
4.06347e-05
4.06495e-05
4.06604e-05
4.06697e-05
4.06803e-05
4.06901e-05
4.07001e-05
4.07079e-05
4.0714e-05
4.07118e-05
4.07075e-05
4.07105e-05
4.07208e-05
4.07356e-05
4.07531e-05
4.07764e-05
4.0799e-05
4.08247e-05
4.08536e-05
4.08857e-05
4.09127e-05
4.09398e-05
4.09599e-05
4.09755e-05
4.09822e-05
4.09845e-05
4.09837e-05
4.09773e-05
4.09652e-05
4.09493e-05
4.09307e-05
4.09081e-05
4.08874e-05
4.08611e-05
4.08492e-05
4.08438e-05
4.08374e-05
4.08285e-05
4.08159e-05
4.07997e-05
4.07804e-05
4.07596e-05
4.07392e-05
4.0719e-05
4.06946e-05
4.06595e-05
4.06056e-05
4.05225e-05
4.03981e-05
4.02294e-05
3.99901e-05
3.96537e-05
3.9172e-05
3.85007e-05
3.79105e-05
3.95701e-05
5.06635e-05
7.97803e-05
4.04466e-05
4.04714e-05
4.04897e-05
4.05021e-05
4.05128e-05
4.05219e-05
4.05341e-05
4.05487e-05
4.05643e-05
4.05799e-05
4.05956e-05
4.06119e-05
4.06286e-05
4.06447e-05
4.06578e-05
4.06704e-05
4.06813e-05
4.06917e-05
4.07013e-05
4.07104e-05
4.07171e-05
4.07209e-05
4.07231e-05
4.07252e-05
4.07203e-05
4.07153e-05
4.0712e-05
4.07099e-05
4.07088e-05
4.07083e-05
4.0708e-05
4.07087e-05
4.07105e-05
4.07131e-05
4.0717e-05
4.07205e-05
4.07337e-05
4.07505e-05
4.07685e-05
4.07864e-05
4.08032e-05
4.0818e-05
4.08296e-05
4.08369e-05
4.0839e-05
4.08354e-05
4.08256e-05
4.08102e-05
4.07906e-05
4.07691e-05
4.07476e-05
4.07278e-05
4.07098e-05
4.06915e-05
4.06683e-05
4.06342e-05
4.05815e-05
4.05022e-05
4.0388e-05
4.02301e-05
4.00145e-05
3.97202e-05
3.93109e-05
3.87325e-05
3.79832e-05
3.77017e-05
4.16246e-05
5.91208e-05
9.65298e-05
4.03638e-05
4.03959e-05
4.04276e-05
4.04557e-05
4.04795e-05
4.04988e-05
4.05149e-05
4.05296e-05
4.05441e-05
4.05586e-05
4.05731e-05
4.05878e-05
4.06028e-05
4.06181e-05
4.06333e-05
4.06478e-05
4.06615e-05
4.06743e-05
4.06862e-05
4.06974e-05
4.07079e-05
4.07175e-05
4.07259e-05
4.07332e-05
4.07388e-05
4.0743e-05
4.07463e-05
4.07494e-05
4.07528e-05
4.07569e-05
4.07618e-05
4.07672e-05
4.07732e-05
4.07797e-05
4.07867e-05
4.0794e-05
4.08015e-05
4.08086e-05
4.08147e-05
4.08191e-05
4.08208e-05
4.08192e-05
4.08136e-05
4.08038e-05
4.07899e-05
4.07727e-05
4.07534e-05
4.07335e-05
4.07147e-05
4.06979e-05
4.06834e-05
4.06698e-05
4.06542e-05
4.06322e-05
4.05979e-05
4.0545e-05
4.0467e-05
4.03574e-05
4.0209e-05
4.00114e-05
3.97486e-05
3.93924e-05
3.8897e-05
3.82116e-05
3.74472e-05
3.79409e-05
4.55778e-05
7.09435e-05
0.000115041
4.03015e-05
4.03153e-05
4.0335e-05
4.03582e-05
4.03879e-05
4.04187e-05
4.04475e-05
4.04732e-05
4.0496e-05
4.05163e-05
4.05349e-05
4.05521e-05
4.05684e-05
4.0584e-05
4.05994e-05
4.06144e-05
4.0629e-05
4.06431e-05
4.06566e-05
4.06695e-05
4.06817e-05
4.06934e-05
4.07044e-05
4.07147e-05
4.07244e-05
4.07333e-05
4.07414e-05
4.07489e-05
4.07559e-05
4.07623e-05
4.07683e-05
4.07738e-05
4.07787e-05
4.0783e-05
4.07864e-05
4.07887e-05
4.07894e-05
4.07883e-05
4.07848e-05
4.07788e-05
4.07699e-05
4.07583e-05
4.07442e-05
4.07283e-05
4.07116e-05
4.0695e-05
4.06798e-05
4.06665e-05
4.06554e-05
4.06454e-05
4.06346e-05
4.06195e-05
4.0596e-05
4.05591e-05
4.05036e-05
4.04246e-05
4.03169e-05
4.01748e-05
3.99902e-05
3.97501e-05
3.94323e-05
3.90006e-05
3.84028e-05
3.76172e-05
3.7005e-05
3.90775e-05
5.22584e-05
8.61999e-05
0.000134345
4.03029e-05
4.02957e-05
4.02929e-05
4.02958e-05
4.03055e-05
4.03211e-05
4.03403e-05
4.03658e-05
4.03947e-05
4.04234e-05
4.04503e-05
4.04751e-05
4.04979e-05
4.05187e-05
4.0538e-05
4.0556e-05
4.05729e-05
4.05889e-05
4.0604e-05
4.06183e-05
4.06318e-05
4.06446e-05
4.06566e-05
4.06678e-05
4.06782e-05
4.06879e-05
4.06967e-05
4.07046e-05
4.07116e-05
4.07176e-05
4.07224e-05
4.0726e-05
4.07283e-05
4.0729e-05
4.07281e-05
4.07254e-05
4.07207e-05
4.07139e-05
4.07052e-05
4.06948e-05
4.0683e-05
4.06704e-05
4.06577e-05
4.06458e-05
4.06353e-05
4.06265e-05
4.06194e-05
4.06132e-05
4.06062e-05
4.05958e-05
4.0579e-05
4.05519e-05
4.05105e-05
4.04509e-05
4.03693e-05
4.02616e-05
4.01234e-05
3.99479e-05
3.97242e-05
3.94345e-05
3.90497e-05
3.85255e-05
3.78135e-05
3.69777e-05
3.68739e-05
4.18182e-05
6.23672e-05
0.000104231
0.000152614
4.03555e-05
4.03446e-05
4.03301e-05
4.03129e-05
4.02997e-05
4.02915e-05
4.02887e-05
4.02917e-05
4.03002e-05
4.0313e-05
4.03328e-05
4.03576e-05
4.03836e-05
4.0409e-05
4.04331e-05
4.04557e-05
4.04768e-05
4.04965e-05
4.05147e-05
4.05315e-05
4.05472e-05
4.05616e-05
4.05748e-05
4.05869e-05
4.05979e-05
4.06077e-05
4.06163e-05
4.06237e-05
4.06299e-05
4.06347e-05
4.06379e-05
4.06396e-05
4.06397e-05
4.06382e-05
4.06352e-05
4.06308e-05
4.06251e-05
4.06185e-05
4.06113e-05
4.0604e-05
4.05971e-05
4.0591e-05
4.05862e-05
4.05825e-05
4.05799e-05
4.05773e-05
4.05734e-05
4.05662e-05
4.05534e-05
4.05319e-05
4.04989e-05
4.04513e-05
4.03862e-05
4.03007e-05
4.01917e-05
4.00554e-05
3.98859e-05
3.9674e-05
3.94045e-05
3.90534e-05
3.85846e-05
3.79497e-05
3.7129e-05
3.6386e-05
3.74741e-05
4.71381e-05
7.62942e-05
0.000123713
0.000168349
4.03652e-05
4.03719e-05
4.03719e-05
4.03657e-05
4.03555e-05
4.03431e-05
4.03298e-05
4.03166e-05
4.03044e-05
4.02953e-05
4.02917e-05
4.0295e-05
4.03047e-05
4.0319e-05
4.0336e-05
4.03543e-05
4.0373e-05
4.03914e-05
4.04093e-05
4.04263e-05
4.04423e-05
4.04573e-05
4.0471e-05
4.04836e-05
4.0495e-05
4.0505e-05
4.05138e-05
4.05213e-05
4.05275e-05
4.05322e-05
4.05356e-05
4.05378e-05
4.0539e-05
4.05393e-05
4.05389e-05
4.05381e-05
4.05372e-05
4.05364e-05
4.05359e-05
4.05361e-05
4.05369e-05
4.05381e-05
4.05392e-05
4.05394e-05
4.05375e-05
4.05319e-05
4.05207e-05
4.05019e-05
4.04731e-05
4.04323e-05
4.03773e-05
4.03059e-05
4.02159e-05
4.01048e-05
3.99691e-05
3.98035e-05
3.95996e-05
3.93441e-05
3.90166e-05
3.85874e-05
3.80144e-05
3.72565e-05
3.63795e-05
3.60618e-05
3.95394e-05
5.59714e-05
9.37476e-05
0.000142939
0.000180784
4.02911e-05
4.03208e-05
4.03435e-05
4.03594e-05
4.0369e-05
4.03729e-05
4.0372e-05
4.03673e-05
4.03597e-05
4.03507e-05
4.03414e-05
4.03335e-05
4.03282e-05
4.0326e-05
4.03268e-05
4.03305e-05
4.03365e-05
4.03443e-05
4.03533e-05
4.03633e-05
4.03737e-05
4.03841e-05
4.03945e-05
4.04045e-05
4.0414e-05
4.04228e-05
4.0431e-05
4.04383e-05
4.04448e-05
4.04506e-05
4.0456e-05
4.0461e-05
4.04658e-05
4.04705e-05
4.04751e-05
4.04798e-05
4.04845e-05
4.04892e-05
4.04938e-05
4.04977e-05
4.05005e-05
4.05014e-05
4.04993e-05
4.04931e-05
4.04812e-05
4.04623e-05
4.04347e-05
4.0397e-05
4.03476e-05
4.02849e-05
4.02073e-05
4.0113e-05
3.99994e-05
3.98633e-05
3.96997e-05
3.95006e-05
3.9254e-05
3.89421e-05
3.85394e-05
3.8011e-05
3.73141e-05
3.64446e-05
3.56746e-05
3.64714e-05
4.42029e-05
6.91206e-05
0.000113686
0.000160312
0.000190045
4.01555e-05
4.01973e-05
4.02352e-05
4.02689e-05
4.02978e-05
4.03217e-05
4.03404e-05
4.03542e-05
4.03634e-05
4.03686e-05
4.03706e-05
4.03701e-05
4.03681e-05
4.03656e-05
4.03632e-05
4.03615e-05
4.03607e-05
4.03611e-05
4.03627e-05
4.03653e-05
4.03689e-05
4.03732e-05
4.03782e-05
4.03836e-05
4.03894e-05
4.03953e-05
4.04012e-05
4.04072e-05
4.0413e-05
4.0419e-05
4.04251e-05
4.04312e-05
4.04374e-05
4.04434e-05
4.04491e-05
4.04543e-05
4.04586e-05
4.04615e-05
4.04625e-05
4.04609e-05
4.04558e-05
4.04463e-05
4.04315e-05
4.04103e-05
4.03817e-05
4.03445e-05
4.02977e-05
4.02403e-05
4.01708e-05
4.00878e-05
3.99895e-05
3.98735e-05
3.97362e-05
3.95728e-05
3.93755e-05
3.91332e-05
3.88298e-05
3.84434e-05
3.79441e-05
3.72936e-05
3.64638e-05
3.55622e-05
3.53056e-05
3.85172e-05
5.2825e-05
8.67755e-05
0.000134464
0.000174764
0.000196846
4.00139e-05
4.00483e-05
4.00838e-05
4.0121e-05
4.0158e-05
4.01933e-05
4.02257e-05
4.02547e-05
4.02801e-05
4.03016e-05
4.03194e-05
4.03336e-05
4.03448e-05
4.03533e-05
4.03597e-05
4.03645e-05
4.03682e-05
4.03711e-05
4.03738e-05
4.03763e-05
4.03788e-05
4.03815e-05
4.03844e-05
4.03876e-05
4.0391e-05
4.03945e-05
4.03982e-05
4.04019e-05
4.04057e-05
4.04094e-05
4.04128e-05
4.04158e-05
4.04183e-05
4.04197e-05
4.04199e-05
4.04183e-05
4.04144e-05
4.04077e-05
4.03975e-05
4.03833e-05
4.03642e-05
4.03396e-05
4.03088e-05
4.0271e-05
4.02255e-05
4.01713e-05
4.01075e-05
4.00327e-05
3.99454e-05
3.98437e-05
3.97249e-05
3.95855e-05
3.94203e-05
3.92219e-05
3.89794e-05
3.86782e-05
3.82989e-05
3.78158e-05
3.71953e-05
3.64032e-05
3.54739e-05
3.47954e-05
3.59496e-05
4.37287e-05
6.67042e-05
0.000108184
0.000154232
0.000185907
0.000202168
3.99001e-05
3.99166e-05
3.99347e-05
3.99556e-05
3.99803e-05
4.00117e-05
4.00471e-05
4.00831e-05
4.01178e-05
4.01502e-05
4.01799e-05
4.02066e-05
4.02303e-05
4.02512e-05
4.02692e-05
4.02847e-05
4.0298e-05
4.03092e-05
4.03188e-05
4.03269e-05
4.03338e-05
4.03397e-05
4.03447e-05
4.03491e-05
4.03527e-05
4.03557e-05
4.03581e-05
4.03598e-05
4.03606e-05
4.03603e-05
4.03589e-05
4.0356e-05
4.03515e-05
4.03449e-05
4.0336e-05
4.03243e-05
4.03094e-05
4.02909e-05
4.02683e-05
4.02411e-05
4.02088e-05
4.01709e-05
4.01267e-05
4.00754e-05
4.00163e-05
3.9948e-05
3.98693e-05
3.97785e-05
3.96733e-05
3.9551e-05
3.94079e-05
3.92386e-05
3.90357e-05
3.87886e-05
3.84835e-05
3.81029e-05
3.76249e-05
3.70198e-05
3.62526e-05
3.5325e-05
3.44634e-05
3.46796e-05
3.90117e-05
5.41083e-05
8.65137e-05
0.000131635
0.000171409
0.000193912
0.000206746
3.98098e-05
3.98167e-05
3.98232e-05
3.98306e-05
3.98399e-05
3.98525e-05
3.98683e-05
3.98876e-05
3.99125e-05
3.99428e-05
3.99751e-05
4.00071e-05
4.00377e-05
4.00663e-05
4.00925e-05
4.01164e-05
4.01378e-05
4.01568e-05
4.01735e-05
4.0188e-05
4.02005e-05
4.02111e-05
4.02198e-05
4.02268e-05
4.02321e-05
4.02357e-05
4.02377e-05
4.02378e-05
4.02359e-05
4.0232e-05
4.0226e-05
4.02177e-05
4.02068e-05
4.01933e-05
4.01768e-05
4.0157e-05
4.01336e-05
4.01064e-05
4.00749e-05
4.00386e-05
3.9997e-05
3.99495e-05
3.9895e-05
3.98327e-05
3.97613e-05
3.96791e-05
3.95845e-05
3.9475e-05
3.93477e-05
3.91987e-05
3.90225e-05
3.88114e-05
3.85549e-05
3.82399e-05
3.78503e-05
3.7367e-05
3.67644e-05
3.60077e-05
3.50831e-05
3.41346e-05
3.38822e-05
3.65262e-05
4.69679e-05
7.1645e-05
0.000111568
0.000154779
0.000185039
0.000199317
0.000209869
3.97337e-05
3.97353e-05
3.97357e-05
3.97357e-05
3.9736e-05
3.9737e-05
3.97391e-05
3.97427e-05
3.97487e-05
3.97577e-05
3.97701e-05
3.97874e-05
3.981e-05
3.98356e-05
3.9862e-05
3.98879e-05
3.99125e-05
3.99352e-05
3.99559e-05
3.99744e-05
3.99906e-05
4.00044e-05
4.0016e-05
4.00252e-05
4.0032e-05
4.00364e-05
4.00384e-05
4.00377e-05
4.00344e-05
4.00285e-05
4.00201e-05
4.00088e-05
3.99947e-05
3.99774e-05
3.99568e-05
3.99325e-05
3.99044e-05
3.98718e-05
3.98344e-05
3.97914e-05
3.97421e-05
3.96854e-05
3.96202e-05
3.95452e-05
3.94588e-05
3.9359e-05
3.92434e-05
3.91089e-05
3.89514e-05
3.87649e-05
3.85413e-05
3.82703e-05
3.79392e-05
3.75333e-05
3.70352e-05
3.64226e-05
3.56634e-05
3.47337e-05
3.37358e-05
3.3242e-05
3.50253e-05
4.30165e-05
6.27735e-05
9.71323e-05
0.000139493
0.000175263
0.000194963
0.000203385
0.000211456
3.96556e-05
3.96542e-05
3.96517e-05
3.96483e-05
3.96445e-05
3.96403e-05
3.96361e-05
3.96317e-05
3.96276e-05
3.96239e-05
3.96212e-05
3.96203e-05
3.96221e-05
3.96276e-05
3.9638e-05
3.96529e-05
3.96707e-05
3.96896e-05
3.97083e-05
3.97259e-05
3.97421e-05
3.97563e-05
3.97684e-05
3.97781e-05
3.97852e-05
3.97898e-05
3.97915e-05
3.97904e-05
3.97867e-05
3.97802e-05
3.97708e-05
3.97583e-05
3.97424e-05
3.97229e-05
3.96994e-05
3.96716e-05
3.96388e-05
3.96004e-05
3.95558e-05
3.9504e-05
3.94439e-05
3.93745e-05
3.92942e-05
3.92016e-05
3.90946e-05
3.89705e-05
3.88261e-05
3.86567e-05
3.84558e-05
3.8215e-05
3.7924e-05
3.75705e-05
3.71412e-05
3.662e-05
3.59857e-05
3.52099e-05
3.42675e-05
3.32369e-05
3.26251e-05
3.40144e-05
4.08667e-05
5.81008e-05
8.87358e-05
0.000128794
0.000166673
0.000191399
0.000201572
0.00020724
0.000211824
3.95595e-05
3.95558e-05
3.95519e-05
3.95472e-05
3.95419e-05
3.95359e-05
3.95292e-05
3.95218e-05
3.95139e-05
3.95053e-05
3.94962e-05
3.94866e-05
3.94772e-05
3.94683e-05
3.94613e-05
3.94575e-05
3.94581e-05
3.94633e-05
3.94719e-05
3.94821e-05
3.94928e-05
3.95029e-05
3.95118e-05
3.95189e-05
3.9524e-05
3.95265e-05
3.95263e-05
3.95236e-05
3.9518e-05
3.95095e-05
3.94976e-05
3.94821e-05
3.94624e-05
3.94382e-05
3.9409e-05
3.9374e-05
3.93327e-05
3.92843e-05
3.92277e-05
3.9162e-05
3.90861e-05
3.89984e-05
3.88973e-05
3.87807e-05
3.86455e-05
3.8488e-05
3.83027e-05
3.80826e-05
3.78191e-05
3.7502e-05
3.71199e-05
3.66603e-05
3.61082e-05
3.54424e-05
3.46352e-05
3.36717e-05
3.26287e-05
3.19878e-05
3.32901e-05
3.98381e-05
5.62229e-05
8.52721e-05
0.000123761
0.000161926
0.000189584
0.000202593
0.000205323
0.000209222
0.000211011
3.9433e-05
3.94281e-05
3.94228e-05
3.94172e-05
3.94109e-05
3.94039e-05
3.93961e-05
3.93876e-05
3.93781e-05
3.93677e-05
3.93564e-05
3.93439e-05
3.93304e-05
3.9316e-05
3.93009e-05
3.92856e-05
3.92709e-05
3.92582e-05
3.92494e-05
3.92452e-05
3.92443e-05
3.92453e-05
3.92467e-05
3.92475e-05
3.92469e-05
3.92442e-05
3.92391e-05
3.92315e-05
3.92208e-05
3.92067e-05
3.91885e-05
3.91657e-05
3.91379e-05
3.91044e-05
3.90645e-05
3.90176e-05
3.89629e-05
3.88993e-05
3.88259e-05
3.87415e-05
3.86444e-05
3.85328e-05
3.84041e-05
3.82546e-05
3.80798e-05
3.78736e-05
3.76286e-05
3.73361e-05
3.69866e-05
3.65697e-05
3.60737e-05
3.54826e-05
3.47756e-05
3.39275e-05
3.29339e-05
3.19095e-05
3.13474e-05
3.28112e-05
3.96532e-05
5.63208e-05
8.54278e-05
0.000123671
0.00016189
0.000190865
0.000206279
0.000209412
0.000206985
0.000209786
0.000209032
3.92665e-05
3.92613e-05
3.92552e-05
3.92484e-05
3.92409e-05
3.92326e-05
3.92236e-05
3.92136e-05
3.92027e-05
3.91908e-05
3.91778e-05
3.91637e-05
3.91482e-05
3.91313e-05
3.9113e-05
3.90932e-05
3.90721e-05
3.905e-05
3.90273e-05
3.90043e-05
3.89826e-05
3.89644e-05
3.89503e-05
3.89388e-05
3.89273e-05
3.89145e-05
3.89e-05
3.8883e-05
3.8863e-05
3.88392e-05
3.88107e-05
3.8777e-05
3.87373e-05
3.86908e-05
3.86368e-05
3.85744e-05
3.85025e-05
3.84201e-05
3.83257e-05
3.82175e-05
3.80929e-05
3.79486e-05
3.77802e-05
3.75823e-05
3.73484e-05
3.70712e-05
3.67428e-05
3.6355e-05
3.58981e-05
3.53597e-05
3.47225e-05
3.39637e-05
3.30685e-05
3.20552e-05
3.10888e-05
3.07655e-05
3.26763e-05
4.02561e-05
5.79229e-05
8.80564e-05
0.000126949
0.000165474
0.000195137
0.000212171
0.00021709
0.000213715
0.00021022
0.000210039
0.000206763
3.90538e-05
3.90479e-05
3.90408e-05
3.90327e-05
3.90236e-05
3.90135e-05
3.90025e-05
3.89905e-05
3.89774e-05
3.89632e-05
3.89477e-05
3.8931e-05
3.89128e-05
3.88932e-05
3.88719e-05
3.88488e-05
3.88239e-05
3.8797e-05
3.87681e-05
3.87372e-05
3.87043e-05
3.86698e-05
3.86333e-05
3.85949e-05
3.85549e-05
3.8517e-05
3.84839e-05
3.84526e-05
3.84196e-05
3.83829e-05
3.83412e-05
3.82937e-05
3.82392e-05
3.81767e-05
3.81052e-05
3.80235e-05
3.79303e-05
3.78235e-05
3.77007e-05
3.75583e-05
3.73922e-05
3.71973e-05
3.69678e-05
3.66977e-05
3.63808e-05
3.60105e-05
3.55798e-05
3.50785e-05
3.44919e-05
3.37999e-05
3.29829e-05
3.20399e-05
3.10469e-05
3.02333e-05
3.03163e-05
3.30207e-05
4.16895e-05
6.06702e-05
9.20589e-05
0.000131653
0.000170361
0.000200521
0.000219027
0.000225987
0.000223351
0.000215929
0.00021219
0.00021008
0.000204746
3.87876e-05
3.87796e-05
3.87703e-05
3.87599e-05
3.87485e-05
3.87359e-05
3.87221e-05
3.87071e-05
3.86909e-05
3.86733e-05
3.86543e-05
3.86337e-05
3.86116e-05
3.85877e-05
3.8562e-05
3.85343e-05
3.85044e-05
3.84721e-05
3.84374e-05
3.83999e-05
3.83596e-05
3.83162e-05
3.82695e-05
3.82193e-05
3.81654e-05
3.81074e-05
3.80448e-05
3.79774e-05
3.79084e-05
3.78422e-05
3.77763e-05
3.77061e-05
3.76292e-05
3.75436e-05
3.74475e-05
3.73384e-05
3.72133e-05
3.70684e-05
3.68991e-05
3.67003e-05
3.64676e-05
3.61964e-05
3.58824e-05
3.55208e-05
3.51056e-05
3.46289e-05
3.40786e-05
3.34362e-05
3.26819e-05
3.18066e-05
3.08464e-05
2.99415e-05
2.94803e-05
3.02283e-05
3.4009e-05
4.39591e-05
6.41581e-05
9.6279e-05
0.000135737
0.000173884
0.00020426
0.000224485
0.000234237
0.00023419
0.000226276
0.00021623
0.000213604
0.000210666
0.000204015
3.84517e-05
3.84402e-05
3.84274e-05
3.84134e-05
3.83982e-05
3.83818e-05
3.8364e-05
3.83449e-05
3.83242e-05
3.83019e-05
3.82779e-05
3.82521e-05
3.82243e-05
3.81945e-05
3.81624e-05
3.81279e-05
3.80907e-05
3.80508e-05
3.80078e-05
3.79614e-05
3.79114e-05
3.78575e-05
3.77992e-05
3.77364e-05
3.76685e-05
3.75952e-05
3.75157e-05
3.74293e-05
3.73354e-05
3.7233e-05
3.71212e-05
3.70033e-05
3.68843e-05
3.67593e-05
3.6621e-05
3.64634e-05
3.62809e-05
3.6068e-05
3.58204e-05
3.55377e-05
3.52184e-05
3.48587e-05
3.4453e-05
3.39925e-05
3.34647e-05
3.2856e-05
3.21501e-05
3.13339e-05
3.04286e-05
2.95265e-05
2.88866e-05
2.89888e-05
3.08013e-05
3.58939e-05
4.70567e-05
6.78908e-05
9.9538e-05
0.00013736
0.000173811
0.000203961
0.000225998
0.000239182
0.000243204
0.000238399
0.000227639
0.000217833
0.000215646
0.000212602
0.000205492
3.8014e-05
3.79979e-05
3.79804e-05
3.79614e-05
3.79411e-05
3.79194e-05
3.7896e-05
3.7871e-05
3.78441e-05
3.78153e-05
3.77845e-05
3.77514e-05
3.77159e-05
3.76779e-05
3.7637e-05
3.75931e-05
3.75459e-05
3.74952e-05
3.74406e-05
3.73817e-05
3.73182e-05
3.72495e-05
3.71754e-05
3.70951e-05
3.70082e-05
3.69139e-05
3.68114e-05
3.66997e-05
3.65777e-05
3.64443e-05
3.6298e-05
3.61369e-05
3.59592e-05
3.57619e-05
3.55413e-05
3.52935e-05
3.50139e-05
3.46983e-05
3.43543e-05
3.39909e-05
3.35935e-05
3.31438e-05
3.26287e-05
3.20356e-05
3.13556e-05
3.05891e-05
2.97531e-05
2.8902e-05
2.82403e-05
2.81106e-05
2.91762e-05
3.22989e-05
3.87439e-05
5.07386e-05
7.11679e-05
0.000100692
0.000135184
0.000168856
0.000198317
0.000222001
0.000238688
0.000247343
0.000247394
0.00023971
0.000228192
0.000220432
0.00021876
0.000216236
0.000209476
3.74178e-05
3.73958e-05
3.73721e-05
3.73467e-05
3.73195e-05
3.72905e-05
3.72595e-05
3.72264e-05
3.71911e-05
3.71533e-05
3.71129e-05
3.70697e-05
3.70234e-05
3.69738e-05
3.69206e-05
3.68634e-05
3.6802e-05
3.67358e-05
3.66646e-05
3.65877e-05
3.65046e-05
3.64148e-05
3.63178e-05
3.62128e-05
3.60988e-05
3.59747e-05
3.58395e-05
3.56916e-05
3.55296e-05
3.53514e-05
3.51546e-05
3.49361e-05
3.46922e-05
3.44179e-05
3.41093e-05
3.37633e-05
3.33817e-05
3.29647e-05
3.25399e-05
3.20718e-05
3.15412e-05
3.09387e-05
3.02656e-05
2.95305e-05
2.87641e-05
2.80335e-05
2.74768e-05
2.73018e-05
2.80937e-05
3.04089e-05
3.49278e-05
4.24593e-05
5.44533e-05
7.30183e-05
9.86673e-05
0.000128477
0.000158711
0.000187068
0.000211889
0.000231557
0.000244639
0.000250075
0.000247528
0.000238402
0.000227092
0.000222681
0.000222427
0.000221093
0.000215489
3.65665e-05
3.65367e-05
3.65048e-05
3.64706e-05
3.64342e-05
3.63955e-05
3.63541e-05
3.63101e-05
3.62631e-05
3.62129e-05
3.61593e-05
3.61019e-05
3.60406e-05
3.59748e-05
3.59042e-05
3.58285e-05
3.57469e-05
3.56591e-05
3.55644e-05
3.5462e-05
3.53512e-05
3.52314e-05
3.51014e-05
3.496e-05
3.48058e-05
3.46374e-05
3.4453e-05
3.42503e-05
3.40266e-05
3.37785e-05
3.35011e-05
3.31904e-05
3.28406e-05
3.24553e-05
3.20345e-05
3.15881e-05
3.11295e-05
3.06308e-05
3.00762e-05
2.94633e-05
2.88032e-05
2.81134e-05
2.74505e-05
2.68862e-05
2.65319e-05
2.66006e-05
2.74043e-05
2.93511e-05
3.29352e-05
3.85759e-05
4.64846e-05
5.71698e-05
7.21137e-05
9.24008e-05
0.000116938
0.000143632
0.000170499
0.000195645
0.000217312
0.000233994
0.000244421
0.000247695
0.000243769
0.000234048
0.000222392
0.000223292
0.000225439
0.000225867
0.000222049
3.52884e-05
3.52476e-05
3.5204e-05
3.51575e-05
3.51081e-05
3.50555e-05
3.49994e-05
3.49398e-05
3.48762e-05
3.48083e-05
3.47359e-05
3.46584e-05
3.45754e-05
3.44864e-05
3.4391e-05
3.42883e-05
3.41778e-05
3.40585e-05
3.39297e-05
3.37904e-05
3.36398e-05
3.34765e-05
3.32987e-05
3.31046e-05
3.28919e-05
3.26579e-05
3.23992e-05
3.21122e-05
3.1792e-05
3.14321e-05
3.1035e-05
3.06023e-05
3.01273e-05
2.96715e-05
2.91902e-05
2.86708e-05
2.8116e-05
2.75261e-05
2.69217e-05
2.6362e-05
2.59012e-05
2.55549e-05
2.55495e-05
2.59751e-05
2.70001e-05
2.88633e-05
3.18915e-05
3.64195e-05
4.25098e-05
4.9683e-05
5.74354e-05
6.69055e-05
8.08129e-05
0.000100305
0.000123765
0.000148769
0.000173267
0.00019568
0.000214664
0.000228989
0.00023758
0.000239727
0.00023547
0.000226175
0.000216088
0.000221068
0.000225772
0.000228129
0.000226393
3.32736e-05
3.32174e-05
3.31577e-05
3.30942e-05
3.30267e-05
3.29552e-05
3.28791e-05
3.27982e-05
3.2712e-05
3.26202e-05
3.25222e-05
3.24176e-05
3.23056e-05
3.21855e-05
3.20567e-05
3.19183e-05
3.17692e-05
3.16083e-05
3.14344e-05
3.12458e-05
3.104e-05
3.08146e-05
3.05671e-05
3.02944e-05
2.99933e-05
2.96604e-05
2.92925e-05
2.88862e-05
2.84423e-05
2.79561e-05
2.75032e-05
2.70466e-05
2.65701e-05
2.60776e-05
2.55999e-05
2.51641e-05
2.48003e-05
2.44715e-05
2.42922e-05
2.44351e-05
2.48823e-05
2.56812e-05
2.69276e-05
2.87512e-05
3.13421e-05
3.49225e-05
3.96299e-05
4.51512e-05
5.03197e-05
5.38239e-05
5.65297e-05
6.33178e-05
7.78744e-05
9.82734e-05
0.00012113
0.00014418
0.000166078
0.000185817
0.000202414
0.000214861
0.000222235
0.000223835
0.000219385
0.000209443
0.000203748
0.000212223
0.00021965
0.000223926
0.000224116
2.99595e-05
2.98849e-05
2.98057e-05
2.97217e-05
2.96329e-05
2.95387e-05
2.94389e-05
2.9333e-05
2.92206e-05
2.9101e-05
2.89737e-05
2.8838e-05
2.86931e-05
2.85381e-05
2.83722e-05
2.81942e-05
2.80033e-05
2.77961e-05
2.75695e-05
2.73216e-05
2.70507e-05
2.67555e-05
2.64349e-05
2.60885e-05
2.5717e-05
2.53224e-05
2.49093e-05
2.44793e-05
2.41001e-05
2.37633e-05
2.34298e-05
2.31352e-05
2.29041e-05
2.27551e-05
2.28215e-05
2.30533e-05
2.34447e-05
2.40067e-05
2.47529e-05
2.57074e-05
2.69195e-05
2.84794e-05
3.04925e-05
3.30944e-05
3.64246e-05
4.02579e-05
4.39036e-05
4.61022e-05
4.54188e-05
4.25798e-05
4.25913e-05
5.00507e-05
6.54553e-05
8.49979e-05
0.000106247
0.000126959
0.000146099
0.000163055
0.000177181
0.000187709
0.000193833
0.000194694
0.000189582
0.000181361
0.00017998
0.000188676
0.000200049
0.000206669
0.000208879
2.45168e-05
2.44324e-05
2.4344e-05
2.42516e-05
2.41552e-05
2.40544e-05
2.39488e-05
2.38381e-05
2.37216e-05
2.3599e-05
2.34695e-05
2.33327e-05
2.3188e-05
2.3035e-05
2.28731e-05
2.27012e-05
2.25189e-05
2.23291e-05
2.21348e-05
2.19387e-05
2.17436e-05
2.15532e-05
2.13718e-05
2.1204e-05
2.10576e-05
2.09397e-05
2.08602e-05
2.08195e-05
2.09596e-05
2.11996e-05
2.1509e-05
2.18775e-05
2.22996e-05
2.2769e-05
2.32794e-05
2.3824e-05
2.44036e-05
2.50366e-05
2.57698e-05
2.6698e-05
2.79164e-05
2.94095e-05
3.10924e-05
3.3051e-05
3.50895e-05
3.62016e-05
3.50136e-05
3.15632e-05
2.95396e-05
2.81041e-05
2.83785e-05
3.31959e-05
4.27336e-05
5.7009e-05
7.52911e-05
9.30301e-05
0.000108741
0.000121908
0.000131958
0.000138511
0.000141292
0.000141901
0.00014143
0.000139915
0.000140892
0.000146328
0.000153634
0.00016335
0.000169844
1.70683e-05
1.71397e-05
1.72297e-05
1.73273e-05
1.74277e-05
1.75284e-05
1.76279e-05
1.77251e-05
1.78194e-05
1.79104e-05
1.7997e-05
1.80817e-05
1.81741e-05
1.82772e-05
1.83922e-05
1.85203e-05
1.86623e-05
1.88186e-05
1.89891e-05
1.91736e-05
1.93717e-05
1.95821e-05
1.98031e-05
2.0032e-05
2.02651e-05
2.04973e-05
2.07225e-05
2.09324e-05
2.11181e-05
2.12689e-05
2.13733e-05
2.14203e-05
2.14023e-05
2.13178e-05
2.1175e-05
2.09979e-05
2.08455e-05
2.07731e-05
2.08771e-05
2.1359e-05
2.21004e-05
2.22723e-05
2.1736e-05
2.09817e-05
1.96961e-05
1.9776e-05
1.90381e-05
1.7733e-05
1.69363e-05
1.66887e-05
1.65069e-05
1.74952e-05
2.03289e-05
2.66398e-05
3.47182e-05
4.36486e-05
5.26361e-05
6.10155e-05
6.83047e-05
7.40397e-05
7.81344e-05
8.10774e-05
8.32517e-05
8.48103e-05
8.65875e-05
8.90477e-05
9.19184e-05
9.50104e-05
9.6577e-05
1.49299e-05
1.50579e-05
1.51867e-05
1.53159e-05
1.54443e-05
1.55709e-05
1.56948e-05
1.58151e-05
1.59308e-05
1.60407e-05
1.61442e-05
1.6237e-05
1.6308e-05
1.63554e-05
1.63792e-05
1.63796e-05
1.63558e-05
1.63069e-05
1.62307e-05
1.61248e-05
1.59861e-05
1.58106e-05
1.55941e-05
1.53318e-05
1.50182e-05
1.46478e-05
1.42148e-05
1.37136e-05
1.3139e-05
1.24876e-05
1.17584e-05
1.09561e-05
1.00959e-05
9.2112e-06
8.35906e-06
7.65845e-06
7.11644e-06
6.49846e-06
5.7008e-06
5.25177e-06
5.55931e-06
5.54413e-06
5.26929e-06
5.19306e-06
5.17305e-06
5.21353e-06
5.01314e-06
4.67206e-06
4.32004e-06
3.93936e-06
3.68437e-06
3.94923e-06
4.55647e-06
5.38325e-06
6.81614e-06
8.85362e-06
1.13024e-05
1.3744e-05
1.5886e-05
1.77624e-05
1.93025e-05
2.05723e-05
2.16045e-05
2.2482e-05
2.33605e-05
2.40351e-05
2.44963e-05
2.46808e-05
2.42102e-05
4.01707e-05
4.0155e-05
4.01451e-05
4.01393e-05
4.0141e-05
4.01534e-05
4.01706e-05
4.01717e-05
4.01621e-05
4.0155e-05
4.01503e-05
4.01517e-05
4.01562e-05
4.01707e-05
4.0177e-05
4.01618e-05
4.01478e-05
4.01352e-05
4.01224e-05
4.01166e-05
4.00903e-05
4.00391e-05
4.00413e-05
4.00584e-05
4.00684e-05
4.00759e-05
4.00949e-05
4.01018e-05
4.00978e-05
4.00902e-05
4.00955e-05
4.00953e-05
4.00776e-05
4.00648e-05
4.00874e-05
4.01257e-05
4.0138e-05
4.01202e-05
4.0113e-05
4.01119e-05
4.01242e-05
4.01426e-05
4.0186e-05
4.02299e-05
4.0248e-05
4.02698e-05
4.02985e-05
4.03203e-05
4.03242e-05
4.03032e-05
4.02893e-05
4.0298e-05
4.03259e-05
4.03514e-05
4.03815e-05
4.04174e-05
4.04433e-05
4.04605e-05
4.04732e-05
4.01408e-05
4.01386e-05
4.01428e-05
4.01527e-05
4.01661e-05
4.01706e-05
4.01636e-05
4.01458e-05
4.01365e-05
4.01347e-05
4.01385e-05
4.01492e-05
4.01645e-05
4.01651e-05
4.01514e-05
4.01359e-05
4.01253e-05
4.01153e-05
4.01066e-05
4.00921e-05
4.0059e-05
4.00219e-05
4.00305e-05
4.00458e-05
4.0055e-05
4.00646e-05
4.00818e-05
4.00873e-05
4.00831e-05
4.00764e-05
4.0082e-05
4.00812e-05
4.00665e-05
4.0053e-05
4.00687e-05
4.01033e-05
4.01225e-05
4.01204e-05
4.01047e-05
4.00981e-05
4.01042e-05
4.01167e-05
4.01457e-05
4.01851e-05
4.02148e-05
4.02431e-05
4.0276e-05
4.03086e-05
4.03318e-05
4.03328e-05
4.03136e-05
4.02991e-05
4.02981e-05
4.03056e-05
4.03192e-05
4.03406e-05
4.03662e-05
4.03941e-05
4.04198e-05
4.01496e-05
4.01549e-05
4.01637e-05
4.01661e-05
4.01616e-05
4.01468e-05
4.01277e-05
4.01188e-05
4.0119e-05
4.01274e-05
4.0143e-05
4.01602e-05
4.01602e-05
4.01426e-05
4.01223e-05
4.01137e-05
4.01071e-05
4.00957e-05
4.00843e-05
4.00604e-05
4.00273e-05
4.00062e-05
4.00179e-05
4.00314e-05
4.00404e-05
4.00516e-05
4.00668e-05
4.00711e-05
4.00669e-05
4.00611e-05
4.00663e-05
4.00656e-05
4.00536e-05
4.00404e-05
4.00497e-05
4.0079e-05
4.01024e-05
4.01192e-05
4.00996e-05
4.00861e-05
4.00852e-05
4.00924e-05
4.01107e-05
4.01409e-05
4.01724e-05
4.02014e-05
4.02379e-05
4.02777e-05
4.0314e-05
4.03378e-05
4.03428e-05
4.03352e-05
4.03157e-05
4.03017e-05
4.02957e-05
4.02976e-05
4.03066e-05
4.03206e-05
4.03381e-05
4.01626e-05
4.016e-05
4.01535e-05
4.01392e-05
4.01209e-05
4.01078e-05
4.01026e-05
4.01074e-05
4.01206e-05
4.01405e-05
4.01551e-05
4.01535e-05
4.01337e-05
4.01089e-05
4.00973e-05
4.00935e-05
4.00857e-05
4.00717e-05
4.0054e-05
4.00257e-05
3.99988e-05
3.99902e-05
4.0003e-05
4.0015e-05
4.00243e-05
4.00365e-05
4.00496e-05
4.00529e-05
4.00488e-05
4.00439e-05
4.00485e-05
4.00482e-05
4.00382e-05
4.00258e-05
4.00302e-05
4.00535e-05
4.0078e-05
4.0105e-05
4.00966e-05
4.00788e-05
4.00687e-05
4.0069e-05
4.00791e-05
4.00999e-05
4.01271e-05
4.01545e-05
4.01849e-05
4.02227e-05
4.02675e-05
4.03078e-05
4.03363e-05
4.03511e-05
4.03505e-05
4.03409e-05
4.03225e-05
4.03077e-05
4.0298e-05
4.02941e-05
4.02952e-05
4.01412e-05
4.01258e-05
4.01096e-05
4.00949e-05
4.00886e-05
4.009e-05
4.00998e-05
4.0117e-05
4.01382e-05
4.01483e-05
4.01419e-05
4.01191e-05
4.0093e-05
4.00789e-05
4.00748e-05
4.00705e-05
4.00585e-05
4.00406e-05
4.00179e-05
3.99911e-05
3.99729e-05
3.99729e-05
3.99855e-05
3.99965e-05
4.00063e-05
4.00187e-05
4.00299e-05
4.00324e-05
4.00285e-05
4.00243e-05
4.00283e-05
4.00284e-05
4.002e-05
4.00088e-05
4.00094e-05
4.00268e-05
4.005e-05
4.00801e-05
4.00877e-05
4.0074e-05
4.00574e-05
4.0049e-05
4.00505e-05
4.00622e-05
4.00821e-05
4.01057e-05
4.01311e-05
4.016e-05
4.01947e-05
4.0241e-05
4.02857e-05
4.03216e-05
4.03455e-05
4.03576e-05
4.03586e-05
4.03527e-05
4.03429e-05
4.03266e-05
4.03134e-05
4.00942e-05
4.00788e-05
4.00741e-05
4.00748e-05
4.00827e-05
4.00967e-05
4.0116e-05
4.01324e-05
4.01355e-05
4.01224e-05
4.00964e-05
4.00722e-05
4.00573e-05
4.00523e-05
4.00495e-05
4.00406e-05
4.00239e-05
4.00028e-05
3.99791e-05
3.99577e-05
3.99481e-05
3.99531e-05
3.99651e-05
3.99754e-05
3.99857e-05
3.99979e-05
4.00074e-05
4.00092e-05
4.00056e-05
4.0002e-05
4.00054e-05
4.00058e-05
3.99989e-05
3.9989e-05
3.9987e-05
3.99989e-05
4.00188e-05
4.00475e-05
4.00667e-05
4.00646e-05
4.00495e-05
4.00348e-05
4.00274e-05
4.00292e-05
4.004e-05
4.00572e-05
4.00776e-05
4.01002e-05
4.01252e-05
4.01576e-05
4.01952e-05
4.02409e-05
4.02832e-05
4.0317e-05
4.03413e-05
4.03567e-05
4.03647e-05
4.03651e-05
4.03622e-05
4.00649e-05
4.00603e-05
4.00684e-05
4.00807e-05
4.0097e-05
4.01113e-05
4.01174e-05
4.01114e-05
4.00917e-05
4.00659e-05
4.00447e-05
4.00311e-05
4.00258e-05
4.00232e-05
4.00166e-05
4.00024e-05
3.99824e-05
3.99605e-05
3.99396e-05
3.99251e-05
3.99224e-05
3.99303e-05
3.99415e-05
3.99515e-05
3.99621e-05
3.99737e-05
3.99817e-05
3.99829e-05
3.99796e-05
3.99764e-05
3.99793e-05
3.99801e-05
3.99744e-05
3.9966e-05
3.99624e-05
3.99694e-05
3.99851e-05
4.00101e-05
4.00345e-05
4.00445e-05
4.0038e-05
4.00238e-05
4.00105e-05
4.00032e-05
4.0004e-05
4.00122e-05
4.00258e-05
4.00426e-05
4.00611e-05
4.00827e-05
4.0108e-05
4.01395e-05
4.01746e-05
4.02158e-05
4.02553e-05
4.02893e-05
4.03169e-05
4.03375e-05
4.03531e-05
4.00628e-05
4.00661e-05
4.00794e-05
4.0087e-05
4.00906e-05
4.00858e-05
4.00711e-05
4.00493e-05
4.00281e-05
4.00102e-05
3.99994e-05
3.99943e-05
3.99916e-05
3.99862e-05
3.99744e-05
3.99564e-05
3.99356e-05
3.99158e-05
3.99e-05
3.98923e-05
3.98945e-05
3.99036e-05
3.99142e-05
3.99241e-05
3.99348e-05
3.99455e-05
3.99522e-05
3.9953e-05
3.99499e-05
3.99471e-05
3.99495e-05
3.99506e-05