/*--------------------------------*- C++ -*----------------------------------*\
| =========                 |                                                 |
| \\      /  F ield         | OpenFOAM: The Open Source CFD Toolbox           |
|  \\    /   O peration     | Version:  2312                                  |
|   \\  /    A nd           | Website:  www.openfoam.com                      |
|    \\/     M anipulation  |                                                 |
\*---------------------------------------------------------------------------*/
FoamFile
{
    version     2.0;
    format      ascii;
    arch        "LSB;label=32;scalar=64";
    class       volScalarField;
    location    "1200";
    object      p;
}
// * * * * * * * * * * * * * * * * * * * * * * * * * * * * * * * * * * * * * //

dimensions      [0 2 -2 0 0 0 0];

internalField   nonuniform List<scalar> 
76025
(
0.00017476
0.000170013
0.000164997
0.000160158
0.00015526
0.0001503
0.000144896
0.000139835
0.000134605
0.000129443
0.000124059
0.000118482
0.00011275
0.000106978
0.000101157
9.53471e-05
8.95927e-05
8.36491e-05
7.76999e-05
7.197e-05
6.61993e-05
6.01142e-05
5.40028e-05
4.7878e-05
4.16927e-05
3.55436e-05
2.92283e-05
2.27711e-05
1.66764e-05
1.01602e-05
4.16211e-06
-2.20656e-06
-8.89418e-06
-1.52718e-05
-2.13439e-05
-2.71224e-05
-3.29484e-05
-3.90035e-05
-4.51463e-05
-5.11918e-05
-5.69074e-05
-6.25323e-05
-6.83313e-05
-7.43348e-05
-7.95509e-05
-8.49145e-05
-9.01971e-05
-9.5896e-05
-0.000100914
-0.000105925
-0.000110819
-0.000115488
-0.000120355
-0.00012537
-0.000130215
-0.000135439
-0.000140813
-0.000147026
-0.000153744
-0.000160793
-0.000168946
-0.000179645
-0.000193644
-0.000210013
-0.000230803
-0.000259821
-0.000294828
-0.00033875
-0.000404158
0.00017838
0.000173238
0.000168003
0.000162872
0.000157729
0.000152451
0.000147147
0.000141824
0.000136369
0.000130795
0.000125077
0.0001193
0.000113495
0.000107664
0.000101802
9.59415e-05
8.99401e-05
8.39645e-05
7.79085e-05
7.19404e-05
6.57942e-05
5.96251e-05
5.34308e-05
4.71881e-05
4.0861e-05
3.44719e-05
2.80662e-05
2.17923e-05
1.54894e-05
9.1291e-06
2.79822e-06
-3.74377e-06
-1.01578e-05
-1.62972e-05
-2.2429e-05
-2.84808e-05
-3.46271e-05
-4.06461e-05
-4.65564e-05
-5.24488e-05
-5.81633e-05
-6.38544e-05
-6.93989e-05
-7.48102e-05
-8.0055e-05
-8.52479e-05
-9.03872e-05
-9.54278e-05
-0.000100229
-0.000104848
-0.000109297
-0.000113542
-0.000117676
-0.000121716
-0.000125649
-0.000129722
-0.000133942
-0.000138451
-0.000143309
-0.000148666
-0.000155076
-0.000163731
-0.000174951
-0.0001892
-0.000208055
-0.000233681
-0.000267241
-0.000311166
-0.000374425
0.000182723
0.000177331
0.00017184
0.000166442
0.000161056
0.000155634
0.000150124
0.000144503
0.00013878
0.000132959
0.000127073
0.000121153
0.000115204
0.000109223
0.000103204
9.70986e-05
9.09351e-05
8.47316e-05
7.85035e-05
7.22321e-05
6.59195e-05
5.9588e-05
5.32203e-05
4.68077e-05
4.0359e-05
3.38935e-05
2.74542e-05
2.10178e-05
1.45332e-05
8.01097e-06
1.4571e-06
-5.05705e-06
-1.14327e-05
-1.76877e-05
-2.38906e-05
-3.00184e-05
-3.60662e-05
-4.19976e-05
-4.78502e-05
-5.36387e-05
-5.93031e-05
-6.48383e-05
-7.02304e-05
-7.55149e-05
-8.06693e-05
-8.56515e-05
-9.04559e-05
-9.50798e-05
-9.94879e-05
-0.000103626
-0.000107495
-0.000111095
-0.00011445
-0.000117597
-0.000120548
-0.000123367
-0.000126099
-0.000128879
-0.00013185
-0.000135247
-0.000139546
-0.000145445
-0.000153652
-0.000165
-0.000180862
-0.000203054
-0.000234236
-0.000276674
-0.000337577
0.000187009
0.00018136
0.000175598
0.000169941
0.000164318
0.000158644
0.000152863
0.00014697
0.00014099
0.000134946
0.000128852
0.000122713
0.000116526
0.000110286
0.000103993
9.76439e-05
9.12551e-05
8.48341e-05
7.83886e-05
7.19181e-05
6.54263e-05
5.89096e-05
5.23678e-05
4.5805e-05
3.92281e-05
3.26408e-05
2.60421e-05
1.94248e-05
1.279e-05
6.1418e-06
-4.86256e-07
-7.02006e-06
-1.34315e-05
-1.97238e-05
-2.59092e-05
-3.19921e-05
-3.79778e-05
-4.38723e-05
-4.96784e-05
-5.53859e-05
-6.09677e-05
-6.64047e-05
-7.16889e-05
-7.68111e-05
-8.17434e-05
-8.64599e-05
-9.0954e-05
-9.52125e-05
-9.91971e-05
-0.000102859
-0.000106176
-0.000109132
-0.000111712
-0.000113916
-0.000115743
-0.000117212
-0.000118373
-0.000119324
-0.000120202
-0.000121246
-0.000122872
-0.000125701
-0.00013049
-0.00013818
-0.000150181
-0.000168354
-0.00019613
-0.000235739
-0.000293398
0.000190917
0.000184975
0.000178918
0.000172976
0.000167077
0.000161127
0.000155074
0.000148915
0.000142673
0.000136372
0.000130023
0.000123628
0.000117186
0.000110697
0.000104166
9.76022e-05
9.10107e-05
8.43975e-05
7.77663e-05
7.11199e-05
6.44588e-05
5.77835e-05
5.10969e-05
4.44011e-05
3.76972e-05
3.09855e-05
2.42675e-05
1.75479e-05
1.08313e-05
4.11847e-06
-2.54732e-06
-9.10416e-06
-1.55294e-05
-2.18229e-05
-2.79973e-05
-3.4068e-05
-4.0044e-05
-4.59252e-05
-5.17015e-05
-5.73568e-05
-6.28683e-05
-6.82118e-05
-7.33686e-05
-7.8322e-05
-8.30529e-05
-8.75393e-05
-9.17576e-05
-9.56777e-05
-9.92576e-05
-0.000102447
-0.000105202
-0.00010748
-0.000109243
-0.000110461
-0.000111106
-0.000111164
-0.000110646
-0.000109606
-0.00010816
-0.000106526
-0.00010507
-0.000104347
-0.000105112
-0.000108372
-0.000115625
-0.000128992
-0.000152622
-0.00018859
-0.000242924
0.000194608
0.000188348
0.000181976
0.000175735
0.000169547
0.000163315
0.000156986
0.000150554
0.000144041
0.000137473
0.000130864
0.000124215
0.000117529
0.000110807
0.000104055
9.72803e-05
9.0487e-05
8.36792e-05
7.68603e-05
7.00327e-05
6.31986e-05
5.63599e-05
4.95187e-05
4.26763e-05
3.5834e-05
2.89938e-05
2.21582e-05
1.53295e-05
8.5081e-06
1.70165e-06
-5.0321e-06
-1.16371e-05
-1.80951e-05
-2.44118e-05
-3.06027e-05
-3.66823e-05
-4.26563e-05
-4.85193e-05
-5.42576e-05
-5.98516e-05
-6.52785e-05
-7.05148e-05
-7.55403e-05
-8.0336e-05
-8.48798e-05
-8.91432e-05
-9.30928e-05
-9.66885e-05
-9.98801e-05
-0.000102608
-0.000104807
-0.000106414
-0.000107362
-0.000107584
-0.000107015
-0.000105598
-0.000103297
-0.000100118
-9.61287e-05
-9.14932e-05
-8.65207e-05
-8.17054e-05
-7.77795e-05
-7.57842e-05
-7.73539e-05
-8.51273e-05
-0.000104003
-0.000135823
-0.000186667
0.000198112
0.000191509
0.000184802
0.000178243
0.00017175
0.000165222
0.0001586
0.00015188
0.000145083
0.000138237
0.000131357
0.000124447
0.000117508
0.000110542
0.000103555
9.65528e-05
8.954e-05
8.25209e-05
7.5499e-05
6.84772e-05
6.14582e-05
5.44446e-05
4.74385e-05
4.04417e-05
3.34562e-05
2.64835e-05
1.95248e-05
1.25814e-05
5.65337e-06
-1.2373e-06
-8.02198e-06
-1.46549e-05
-2.11271e-05
-2.74501e-05
-3.36411e-05
-3.9713e-05
-4.56692e-05
-5.15022e-05
-5.7196e-05
-6.27297e-05
-6.80803e-05
-7.32243e-05
-7.81389e-05
-8.28007e-05
-8.71821e-05
-9.12494e-05
-9.49625e-05
-9.82717e-05
-0.000101115
-0.000103419
-0.0001051
-0.000106068
-0.000106224
-0.000105463
-0.000103675
-0.000100753
-9.66022e-05
-9.11604e-05
-8.4424e-05
-7.64825e-05
-6.75644e-05
-5.80865e-05
-4.87329e-05
-4.05753e-05
-3.55055e-05
-3.70062e-05
-5.066e-05
-7.82599e-05
-0.000125935
0.000201327
0.00019436
0.000187295
0.000180396
0.000173576
0.000166728
0.000159793
0.000152763
0.000145663
0.000138522
0.000131356
0.00012417
0.000116965
0.000109742
0.000102507
9.52668e-05
8.80266e-05
8.0791e-05
7.35635e-05
6.63476e-05
5.91461e-05
5.19617e-05
4.47968e-05
3.76533e-05
3.05326e-05
2.34358e-05
1.63633e-05
9.31691e-06
2.29791e-06
-4.65428e-06
-1.14712e-05
-1.81207e-05
-2.46029e-05
-3.09332e-05
-3.71292e-05
-4.32015e-05
-4.91505e-05
-5.49659e-05
-6.06296e-05
-6.61192e-05
-7.14107e-05
-7.64798e-05
-8.13019e-05
-8.58508e-05
-9.00956e-05
-9.39986e-05
-9.75132e-05
-0.00010058
-0.000103126
-0.000105061
-0.000106281
-0.000106669
-0.000106092
-0.000104401
-0.000101435
-9.70237e-05
-9.09988e-05
-8.32134e-05
-7.35678e-05
-6.20459e-05
-4.87631e-05
-3.40267e-05
-1.84514e-05
-3.17112e-06
9.43404e-06
1.47275e-05
6.57402e-06
-1.71911e-05
-6.23151e-05
0.000204171
0.00019682
0.000189377
0.000182116
0.000174947
0.000167758
0.000160489
0.000153131
0.000145711
0.000138259
0.000130793
0.000123319
0.000115837
0.000108349
0.000100861
9.33791e-05
8.59103e-05
7.8459e-05
7.10288e-05
6.36228e-05
5.62439e-05
4.88945e-05
4.15768e-05
3.42924e-05
2.70422e-05
1.98268e-05
1.26463e-05
5.50182e-06
-1.59924e-06
-8.60068e-06
-1.5444e-05
-2.21095e-05
-2.86045e-05
-3.49464e-05
-4.11516e-05
-4.72279e-05
-5.31727e-05
-5.89734e-05
-6.46105e-05
-7.00612e-05
-7.5302e-05
-8.0309e-05
-8.50574e-05
-8.95201e-05
-9.3664e-05
-9.74473e-05
-0.000100817
-0.000103706
-0.000106027
-0.000107676
-0.000108527
-0.000108434
-0.000107228
-0.000104713
-0.000100668
-9.48479e-05
-8.69961e-05
-7.68582e-05
-6.42092e-05
-4.88894e-05
-3.08575e-05
-1.02688e-05
1.23454e-05
3.5692e-05
5.65369e-05
6.89381e-05
6.6178e-05
4.56282e-05
2.30783e-06
0.000206581
0.000198825
0.000190983
0.00018334
0.000175802
0.000168254
0.000160633
0.000152931
0.000145174
0.000137397
0.000129619
0.000121844
0.000114075
0.000106314
9.85662e-05
9.0839e-05
8.31386e-05
7.54699e-05
6.78363e-05
6.02407e-05
5.26857e-05
4.51735e-05
3.77058e-05
3.02839e-05
2.29082e-05
1.55789e-05
8.29625e-06
1.05972e-06
-6.1097e-06
-1.3146e-05
-2.00058e-05
-2.6681e-05
-3.31843e-05
-3.95345e-05
-4.57462e-05
-5.18248e-05
-5.7765e-05
-6.35528e-05
-6.91686e-05
-7.45906e-05
-7.97962e-05
-8.47629e-05
-8.94669e-05
-9.38809e-05
-9.79701e-05
-0.00010169
-0.000104983
-0.000107773
-0.000109964
-0.000111437
-0.000112046
-0.000111616
-0.00010994
-0.000106772
-0.000101823
-9.47647e-05
-8.52322e-05
-7.28386e-05
-5.7198e-05
-3.79602e-05
-1.48715e-05
1.2111e-05
4.25272e-05
7.47148e-05
0.000104186
0.00012369
0.000125641
0.000107395
6.448e-05
0.000208476
0.00020029
0.000192026
0.000183979
0.000176053
0.000168127
0.000160137
0.000152073
0.000143965
0.000135849
0.000127744
0.000119659
0.000111593
0.00010355
9.55355e-05
8.75574e-05
7.96219e-05
7.17338e-05
6.38966e-05
5.61128e-05
4.83846e-05
4.07139e-05
3.31021e-05
2.55499e-05
1.80571e-05
1.06232e-05
3.24847e-06
-4.06665e-06
-1.12824e-05
-1.83361e-05
-2.52002e-05
-3.18771e-05
-3.83836e-05
-4.47388e-05
-5.09553e-05
-5.70358e-05
-6.29731e-05
-6.87525e-05
-7.43549e-05
-7.97601e-05
-8.4948e-05
-8.98983e-05
-9.45892e-05
-9.89946e-05
-0.00010308
-0.000106801
-0.000110096
-0.000112885
-0.000115065
-0.000116504
-0.000117039
-0.00011647
-0.00011455
-0.000110982
-0.000105406
-9.73979e-05
-8.64671e-05
-7.20661e-05
-5.36062e-05
-3.04915e-05
-2.19335e-06
3.1568e-05
7.03355e-05
0.000111746
0.000149822
0.00017592
0.000181477
0.000164344
0.000118565
0.000209756
0.000201112
0.000192399
0.000183926
0.00017559
0.000167266
0.000158888
0.000150446
0.000141971
0.000133501
0.000125058
0.000116651
0.00010828
9.99494e-05
9.16644e-05
8.3433e-05
7.5262e-05
6.71562e-05
5.9119e-05
5.11524e-05
4.32584e-05
3.54382e-05
2.76925e-05
2.00211e-05
1.24232e-05
4.89759e-06
-2.55697e-06
-9.93116e-06
-1.71699e-05
-2.42249e-05
-3.1083e-05
-3.77548e-05
-4.42601e-05
-5.06169e-05
-5.68355e-05
-6.29162e-05
-6.88503e-05
-7.4623e-05
-8.02172e-05
-8.56156e-05
-9.08015e-05
-9.57585e-05
-0.000100468
-0.000104909
-0.000109047
-0.000112841
-0.00011623
-0.000119134
-0.000121446
-0.000123028
-0.000123703
-0.00012325
-0.000121391
-0.000117777
-0.000111975
-0.000103457
-9.15925e-05
-7.56442e-05
-5.47777e-05
-2.80925e-05
5.27647e-06
4.58622e-05
9.30602e-05
0.000143493
0.000189611
0.000221188
0.000229209
0.000212274
0.000163421
0.000210305
0.000201173
0.000191984
0.000183059
0.00017429
0.000165547
0.00015676
0.000147922
0.000139065
0.000130228
0.000121436
0.000112698
0.000104017
9.5394e-05
8.68367e-05
7.83529e-05
6.99494e-05
6.16312e-05
5.34012e-05
4.52611e-05
3.7212e-05
2.92545e-05
2.13881e-05
1.36119e-05
5.92373e-06
-1.67813e-06
-9.19607e-06
-1.66041e-05
-2.38438e-05
-3.0884e-05
-3.77244e-05
-4.43822e-05
-5.08782e-05
-5.72293e-05
-6.3443e-05
-6.95175e-05
-7.54435e-05
-8.12076e-05
-8.67957e-05
-9.21945e-05
-9.73923e-05
-0.000102378
-0.000107139
-0.000111658
-0.000115909
-0.000119853
-0.000123437
-0.000126585
-0.000129194
-0.000131125
-0.0001322
-0.000132185
-0.000130778
-0.000127586
-0.000122108
-0.000113713
-0.000101619
-8.48812e-05
-6.23826e-05
-3.28625e-05
4.93585e-06
5.1788e-05
0.000106767
0.000165325
0.000218212
0.000253845
0.000263692
0.000246886
0.000195936
0.000209992
0.00020034
0.000190644
0.00018124
0.000172013
0.000162827
0.000153612
0.00014436
0.000135104
0.000125887
0.000116736
0.000107661
9.8664e-05
8.97481e-05
8.09199e-05
7.21877e-05
6.35585e-05
5.5037e-05
4.66257e-05
3.83258e-05
3.01372e-05
2.20595e-05
1.40912e-05
6.22968e-06
-1.52833e-06
-9.18604e-06
-1.67415e-05
-2.41508e-05
-3.13659e-05
-3.83725e-05
-4.51811e-05
-5.18128e-05
-5.82888e-05
-6.46234e-05
-7.08218e-05
-7.68807e-05
-8.27911e-05
-8.8542e-05
-9.41232e-05
-9.95266e-05
-0.000104747
-0.00010978
-0.000114621
-0.000119259
-0.000123679
-0.000127851
-0.000131733
-0.000135261
-0.000138345
-0.00014086
-0.000142636
-0.000143443
-0.000142969
-0.000140794
-0.000136365
-0.00012896
-0.00011766
-0.000101311
-7.84863e-05
-4.75124e-05
-6.67003e-06
4.50671e-05
0.000106347
0.000171306
0.000229076
0.000267638
0.000279544
0.000263328
0.000213152
0.00020866
0.000198453
0.000188218
0.000178305
0.000168592
0.00015894
0.000149275
0.000139589
0.000129918
0.000120309
0.000110789
0.00010137
9.20544e-05
8.28457e-05
7.37505e-05
6.47769e-05
5.59321e-05
4.72205e-05
3.86439e-05
3.02024e-05
2.1895e-05
1.37195e-05
5.67293e-06
-2.24917e-06
-1.00513e-05
-1.77392e-05
-2.52955e-05
-3.26691e-05
-3.98307e-05
-4.67809e-05
-5.35382e-05
-6.01261e-05
-6.65647e-05
-7.28658e-05
-7.90324e-05
-8.50603e-05
-9.09417e-05
-9.66688e-05
-0.000102236
-0.000107642
-0.000112889
-0.00011798
-0.00012292
-0.000127709
-0.000132343
-0.00013681
-0.000141085
-0.000145126
-0.000148867
-0.000152212
-0.000155019
-0.000157082
-0.000158105
-0.000157674
-0.000155218
-0.00014997
-0.000140911
-0.000126693
-0.000105556
-7.53031e-05
-3.36042e-05
2.08494e-05
8.61287e-05
0.000155045
0.000215829
0.000256925
0.00027163
0.000257009
0.000208294
0.000206127
0.000195327
0.000184517
0.000174064
0.000163838
0.000153695
0.000143558
0.00013342
0.000123319
0.000113305
0.000103409
9.3643e-05
8.40105e-05
7.45145e-05
6.51617e-05
5.59606e-05
4.69179e-05
3.80377e-05
2.93209e-05
2.07663e-05
1.23711e-05
4.13135e-06
-3.9582e-06
-1.1904e-05
-1.97131e-05
-2.73885e-05
-3.48953e-05
-4.21925e-05
-4.92696e-05
-5.61396e-05
-6.2826e-05
-6.93527e-05
-7.57371e-05
-8.19881e-05
-8.81062e-05
-9.4087e-05
-9.99243e-05
-0.000105614
-0.000111157
-0.000116557
-0.000121825
-0.000126974
-0.000132019
-0.000136974
-0.000141851
-0.000146659
-0.000151398
-0.00015606
-0.000160621
-0.00016503
-0.000169199
-0.00017298
-0.000176136
-0.000178311
-0.00017899
-0.000177432
-0.00017257
-0.000162859
-0.000146076
-0.000119268
-7.93667e-05
-2.49252e-05
4.15157e-05
0.000111962
0.000174542
0.00021812
0.000235374
0.000221693
0.000171124
0.000202162
0.000190727
0.000179304
0.000168274
0.000157504
0.000146841
0.000136207
0.000125596
0.000115048
0.000104616
9.43355e-05
8.4219e-05
7.42704e-05
6.44929e-05
5.48933e-05
4.54798e-05
3.62592e-05
2.72345e-05
1.84055e-05
9.76921e-06
1.32057e-06
-6.94698e-06
-1.50417e-05
-2.29724e-05
-3.0749e-05
-3.83592e-05
-4.57619e-05
-5.29362e-05
-5.98885e-05
-6.66413e-05
-7.32212e-05
-7.96515e-05
-8.59468e-05
-9.21131e-05
-9.81493e-05
-0.000104051
-0.000109815
-0.00011544
-0.000120933
-0.000126305
-0.000131574
-0.000136762
-0.000141897
-0.000147005
-0.00015212
-0.000157274
-0.000162505
-0.000167847
-0.000173335
-0.000178992
-0.000184819
-0.000190776
-0.000196756
-0.000202551
-0.000207785
-0.000211805
-0.000213483
-0.00021091
-0.000201122
-0.000180295
-0.000144795
-9.30573e-05
-2.79667e-05
4.20345e-05
0.000104755
0.000148919
0.000166426
0.000152614
0.000105191
0.000196525
0.000184412
0.000172337
0.000160698
0.000149354
0.000138147
0.000126997
0.000115898
0.000104894
9.40405e-05
8.33768e-05
7.29179e-05
6.26678e-05
5.26298e-05
4.28107e-05
3.32186e-05
2.38598e-05
1.47366e-05
5.84709e-06
-2.81406e-06
-1.12546e-05
-1.94846e-05
-2.75157e-05
-3.53613e-05
-4.30297e-05
-5.04948e-05
-5.77294e-05
-6.47331e-05
-7.15261e-05
-7.81364e-05
-8.45908e-05
-9.09091e-05
-9.71012e-05
-0.000103169
-0.000109109
-0.000114917
-0.00012059
-0.000126133
-0.000131555
-0.000136875
-0.000142117
-0.000147313
-0.000152499
-0.000157719
-0.000163024
-0.000168477
-0.000174154
-0.000180149
-0.000186578
-0.000193573
-0.000201283
-0.000209852
-0.000219392
-0.000229923
-0.000241247
-0.000252722
-0.000262912
-0.000269261
-0.000268073
-0.000254851
-0.000225324
-0.000177847
-0.000115982
-4.91225e-05
9.70332e-06
4.89963e-05
6.22222e-05
4.72333e-05
4.1933e-06
0.000188826
0.000175979
0.000163196
0.000150898
0.000138936
0.000127145
0.000115443
0.000103825
9.23382e-05
8.10441e-05
6.99845e-05
5.91769e-05
4.86262e-05
3.83358e-05
2.83124e-05
1.85638e-05
9.09552e-06
-9.15282e-08
-9.00162e-06
-1.76433e-05
-2.60284e-05
-3.41716e-05
-4.20886e-05
-4.97947e-05
-5.72812e-05
-6.4522e-05
-7.15123e-05
-7.82712e-05
-8.48304e-05
-9.12227e-05
-9.74754e-05
-0.000103606
-0.00010962
-0.000115518
-0.000121294
-0.000126945
-0.000132468
-0.000137871
-0.000143167
-0.000148377
-0.000153532
-0.000158668
-0.000163828
-0.000169065
-0.000174447
-0.000180061
-0.00018603
-0.000192523
-0.000199768
-0.000208064
-0.000217775
-0.00022931
-0.000243061
-0.000259261
-0.000277717
-0.000297465
-0.000316554
-0.00033198
-0.000339387
-0.000333286
-0.000309193
-0.000266559
-0.000210446
-0.000151324
-0.000102768
-7.58176e-05
-7.30075e-05
-9.16357e-05
-0.000131789
0.000178886
0.000165267
0.000151748
0.000138769
0.000126174
0.00011379
0.000101534
8.94021e-05
7.74449e-05
6.57293e-05
5.4302e-05
4.31834e-05
3.23796e-05
2.18946e-05
1.17352e-05
1.90912e-06
-7.57866e-06
-1.67288e-05
-2.55482e-05
-3.4049e-05
-4.2248e-05
-5.01654e-05
-5.78274e-05
-6.52496e-05
-7.2419e-05
-7.93314e-05
-8.6006e-05
-9.24771e-05
-9.87831e-05
-0.000104957
-0.000111021
-0.000116986
-0.000122851
-0.000128609
-0.00013425
-0.000139767
-0.000145157
-0.000150427
-0.000155592
-0.000160675
-0.000165709
-0.000170729
-0.000175777
-0.000180907
-0.000186191
-0.00019174
-0.000197726
-0.000204414
-0.000212183
-0.000221547
-0.000233142
-0.000247673
-0.000265752
-0.000287596
-0.000312709
-0.000339829
-0.000366807
-0.000389787
-0.00040304
-0.000400986
-0.000380883
-0.000344275
-0.000297431
-0.00025138
-0.000219772
-0.000211635
-0.000224678
-0.000250947
-0.0002913
0.000165665
0.000151174
0.000136812
0.000123054
0.000109736
9.66788e-05
8.3796e-05
7.10845e-05
5.86008e-05
4.64176e-05
3.45869e-05
2.31325e-05
1.20617e-05
1.37901e-06
-8.90907e-06
-1.87953e-05
-2.82761e-05
-3.73549e-05
-4.60428e-05
-5.43577e-05
-6.23229e-05
-6.99635e-05
-7.73003e-05
-8.43337e-05
-9.10627e-05
-9.75105e-05
-0.00010372
-0.000109742
-0.000115623
-0.000121401
-0.000127097
-0.000132719
-0.000138264
-0.00014372
-0.000149073
-0.000154313
-0.000159436
-0.000164448
-0.000169366
-0.000174213
-0.000179016
-0.000183801
-0.000188594
-0.000193426
-0.000198356
-0.0002035
-0.000209073
-0.000215436
-0.000223128
-0.000232891
-0.000245632
-0.000262275
-0.00028349
-0.000309454
-0.000339813
-0.000373163
-0.000405845
-0.000432076
-0.000446295
-0.000445337
-0.000429007
-0.000400197
-0.000365478
-0.00033628
-0.000325286
-0.000338522
-0.000369943
-0.000407531
-0.000450538
0.000150087
0.000134716
0.000119539
0.000105032
9.10243e-05
7.73312e-05
6.38655e-05
5.06262e-05
3.76763e-05
2.50964e-05
1.29463e-05
1.25515e-06
-9.96643e-06
-2.07122e-05
-3.09742e-05
-4.07447e-05
-5.00203e-05
-5.88062e-05
-6.71172e-05
-7.49783e-05
-8.24252e-05
-8.95031e-05
-9.62388e-05
-0.000102647
-0.000108762
-0.000114637
-0.000120336
-0.000125922
-0.000131443
-0.000136933
-0.000142406
-0.000147857
-0.000153269
-0.000158614
-0.000163864
-0.000168998
-0.000174006
-0.000178896
-0.000183689
-0.000188415
-0.0001931
-0.00019775
-0.000202349
-0.000206868
-0.000211302
-0.000215723
-0.000220343
-0.000225591
-0.00023213
-0.000240878
-0.000252947
-0.000269506
-0.00029178
-0.00032083
-0.000356058
-0.000393509
-0.000426952
-0.000451134
-0.000463386
-0.000463088
-0.000451146
-0.000430679
-0.000408832
-0.000396886
-0.000405587
-0.000438129
-0.000486403
-0.000535383
-0.000580181
0.000127918
0.000111494
9.52654e-05
7.98033e-05
6.49295e-05
5.0444e-05
3.62546e-05
2.23615e-05
8.83304e-06
-4.24217e-06
-1.67969e-05
-2.87966e-05
-4.02272e-05
-5.10806e-05
-6.1348e-05
-7.10217e-05
-8.01001e-05
-8.85921e-05
-9.65176e-05
-0.000103905
-0.000110784
-0.000117186
-0.000123137
-0.000128684
-0.000133901
-0.000138876
-0.000143702
-0.000148462
-0.000153221
-0.000158021
-0.000162879
-0.000167784
-0.000172706
-0.000177602
-0.000182427
-0.000187149
-0.000191758
-0.000196279
-0.000200763
-0.000205268
-0.000209822
-0.000214388
-0.000218852
-0.000223048
-0.000226823
-0.000230104
-0.000233019
-0.000236032
-0.000239838
-0.000245427
-0.000254372
-0.000268965
-0.000292006
-0.000324346
-0.000362085
-0.000398346
-0.000427858
-0.000448341
-0.000459083
-0.000459976
-0.000452063
-0.000438827
-0.000428137
-0.000430501
-0.000454248
-0.000500671
-0.000561366
-0.00062018
-0.000668366
0.000105898
8.83905e-05
7.12428e-05
5.49279e-05
3.92642e-05
2.40637e-05
9.23958e-06
-5.20253e-06
-1.91851e-05
-3.26073e-05
-4.53907e-05
-5.74917e-05
-6.889e-05
-7.95725e-05
-8.95259e-05
-9.87387e-05
-0.000107208
-0.000114946
-0.000121986
-0.000128383
-0.000134196
-0.000139469
-0.000144268
-0.000148687
-0.000152842
-0.000156858
-0.000160856
-0.000164941
-0.000169194
-0.000173661
-0.000178347
-0.000183219
-0.000188205
-0.000193213
-0.000198145
-0.000202933
-0.000207566
-0.000212113
-0.0002167
-0.000221462
-0.000226446
-0.000231531
-0.000236428
-0.000240761
-0.000244142
-0.000246147
-0.00024666
-0.000246442
-0.000246431
-0.000247568
-0.000252958
-0.000266629
-0.000290943
-0.000323469
-0.000358092
-0.000389582
-0.000415053
-0.000433156
-0.000443098
-0.000444683
-0.000439264
-0.000431124
-0.000428231
-0.000439839
-0.000472162
-0.000525785
-0.000593486
-0.000660256
-0.000714437
6.82441e-05
4.95471e-05
3.1063e-05
1.35739e-05
-3.11858e-06
-1.9254e-05
-3.4933e-05
-5.01446e-05
-6.47986e-05
-7.87784e-05
-9.19893e-05
-0.000104375
-0.000115907
-0.000126565
-0.00013633
-0.000145184
-0.000153113
-0.000160114
-0.000166197
-0.000171396
-0.000175769
-0.000179402
-0.000182421
-0.00018498
-0.000187257
-0.000189435
-0.000191694
-0.000194196
-0.000197066
-0.000200379
-0.000204141
-0.000208276
-0.000212631
-0.000216992
-0.000221131
-0.000224891
-0.000228276
-0.000231515
-0.000235018
-0.000239198
-0.000244192
-0.000249608
-0.000254692
-0.000258797
-0.000261412
-0.000261536
-0.000258295
-0.000253691
-0.000250371
-0.000249011
-0.000253885
-0.000268203
-0.000290652
-0.000318422
-0.000347865
-0.000375286
-0.000397827
-0.000413746
-0.000422144
-0.000423122
-0.000418303
-0.000412335
-0.000412902
-0.000427984
-0.000462487
-0.000517069
-0.000586305
-0.000657588
-0.00071823
3.92774e-05
1.90475e-05
-4.85545e-07
-1.89554e-05
-3.65629e-05
-5.34884e-05
-6.98228e-05
-8.55633e-05
-0.000100618
-0.000114855
-0.000128159
-0.000140456
-0.000151701
-0.000161869
-0.000170944
-0.000178921
-0.000185801
-0.00019159
-0.000196306
-0.000199979
-0.000202681
-0.000204539
-0.000205733
-0.000206483
-0.000207042
-0.000207685
-0.000208689
-0.000210315
-0.000212772
-0.00021618
-0.000220522
-0.000225611
-0.000231069
-0.000236355
-0.000240874
-0.00024419
-0.000246302
-0.000247797
-0.000249728
-0.000253156
-0.00025836
-0.000264133
-0.000268464
-0.000270689
-0.000271572
-0.000270503
-0.000264926
-0.000257569
-0.000254131
-0.000255386
-0.000260951
-0.000271971
-0.000289438
-0.000312151
-0.000337077
-0.000360642
-0.00037983
-0.000392544
-0.000397842
-0.000396048
-0.000389048
-0.000381584
-0.000380829
-0.000394107
-0.000426254
-0.000478343
-0.000546388
-0.000619958
-0.00068681
-2.33706e-05
-4.51148e-05
-6.67069e-05
-8.69887e-05
-0.000106126
-0.000124395
-0.000141914
-0.000158676
-0.000174575
-0.000189465
-0.000203212
-0.000215702
-0.000226815
-0.000236434
-0.0002445
-0.000251007
-0.000255936
-0.000259286
-0.000261112
-0.000261528
-0.000260701
-0.000258841
-0.000256202
-0.000253083
-0.000249827
-0.000246819
-0.000244479
-0.000243247
-0.000243542
-0.000245713
-0.000249939
-0.000256104
-0.000263659
-0.000271542
-0.000278262
-0.000282343
-0.000283119
-0.000281272
-0.000278632
-0.000277474
-0.000279216
-0.00028271
-0.000284439
-0.000283266
-0.00028132
-0.0002798
-0.000277473
-0.000274012
-0.000270874
-0.000269906
-0.00027233
-0.000279083
-0.000290857
-0.000307317
-0.000326577
-0.000345386
-0.000360131
-0.0003679
-0.000367554
-0.000359603
-0.000346227
-0.000332213
-0.000324767
-0.000332057
-0.000359708
-0.000408953
-0.000476396
-0.00055298
-0.000627063
-6.28394e-05
-8.58453e-05
-0.000107683
-0.000128579
-0.000148666
-0.000167922
-0.000186347
-0.000203896
-0.000220438
-0.000235829
-0.000250018
-0.000263057
-0.000274873
-0.000285197
-0.000293735
-0.00030023
-0.000304524
-0.000306549
-0.000306294
-0.000303803
-0.000299195
-0.000292673
-0.000284546
-0.000275254
-0.00026538
-0.000255657
-0.000246954
-0.000240229
-0.000236444
-0.000236432
-0.00024071
-0.000249241
-0.000261154
-0.000274546
-0.000286559
-0.000294184
-0.000296039
-0.000292887
-0.000287008
-0.000281664
-0.000279831
-0.000281757
-0.000284605
-0.000285925
-0.000285307
-0.00028405
-0.000283314
-0.000283026
-0.000282936
-0.000283188
-0.000284038
-0.000286076
-0.000290496
-0.000298714
-0.000310813
-0.000324412
-0.000335078
-0.000338132
-0.00033116
-0.000314675
-0.000291417
-0.000267033
-0.0002502
-0.000250166
-0.000272313
-0.000318032
-0.000385191
-0.000465538
-0.000547418
-0.000165082
-0.000191198
-0.000216355
-0.000239439
-0.000260892
-0.000281274
-0.00030072
-0.000319025
-0.00033584
-0.0003508
-0.00036356
-0.000373825
-0.000381587
-0.000387085
-0.000390493
-0.000391845
-0.000391065
-0.000388021
-0.000382574
-0.000374637
-0.00036422
-0.000351475
-0.00033673
-0.000320507
-0.000303531
-0.00028672
-0.000271142
-0.000257945
-0.000248245
-0.000242976
-0.0002427
-0.000247417
-0.000256376
-0.000267936
-0.00027968
-0.000289123
-0.000295023
-0.00029711
-0.000295767
-0.000292099
-0.000287797
-0.000284568
-0.000282617
-0.000280829
-0.000279391
-0.000279157
-0.000280429
-0.000282327
-0.000284022
-0.000285374
-0.000286456
-0.000287426
-0.000289001
-0.000292547
-0.000298792
-0.000306579
-0.000312777
-0.000313084
-0.000303214
-0.000280996
-0.000249467
-0.000217581
-0.000196549
-0.000190974
-0.000203638
-0.000242462
-0.000308133
-0.0003892
-0.000474978
-7.23445e-05
-6.2681e-05
-5.26454e-05
-4.23209e-05
-3.14447e-05
-1.98718e-05
-7.65593e-06
4.9233e-06
1.77927e-05
3.13325e-05
4.55413e-05
6.01647e-05
7.49817e-05
9.08984e-05
0.000106358
0.000122224
0.000137665
0.000153803
0.000169414
0.000184683
0.000200772
0.000215328
0.000229049
0.000242215
0.000254559
0.000265659
0.000275016
0.000283268
0.000290537
0.000295633
0.000299318
0.00030197
0.000303548
0.000303776
0.00030238
0.000300121
0.000296994
0.000292735
0.0002879
0.000282774
0.000276308
0.000269474
0.000263311
0.000257151
0.000249923
0.000243268
0.000236327
0.000229932
0.000223596
0.000217589
0.00021184
0.000206325
0.000201381
0.000196701
0.000192361
0.000188035
0.000184358
0.000180965
0.000178067
-7.5578e-05
-6.55611e-05
-5.51036e-05
-4.4166e-05
-3.26997e-05
-2.06713e-05
-8.05529e-06
5.10043e-06
1.87671e-05
3.30032e-05
4.77532e-05
6.29508e-05
7.85742e-05
9.47032e-05
0.000111048
0.000127532
0.000144161
0.000160794
0.000177269
0.000193275
0.00020944
0.000224698
0.000239167
0.000252904
0.000265523
0.00027688
0.000286786
0.000295133
0.000302371
0.000307695
0.000311359
0.000313945
0.000315323
0.000315266
0.000313881
0.000311405
0.000307964
0.000303496
0.000298216
0.000292369
0.000285726
0.000278787
0.000271958
0.000264771
0.000257535
0.00025032
0.000243276
0.000236539
0.0002299
0.000223507
0.000217445
0.000211699
0.000206244
0.000201233
0.000196506
0.000192266
0.000188533
0.000185166
0.000182159
-7.97943e-05
-6.93265e-05
-5.83811e-05
-4.6869e-05
-3.48047e-05
-2.21638e-05
-8.95547e-06
4.81661e-06
1.91642e-05
3.40951e-05
4.95552e-05
6.54819e-05
8.18473e-05
9.86141e-05
0.000115686
0.000133054
0.00015057
0.000168025
0.000185231
0.000202116
0.000218745
0.00023471
0.000249874
0.000264093
0.000277149
0.000288908
0.000299209
0.00030791
0.000315188
0.000320626
0.000324427
0.000326928
0.000327976
0.000327656
0.000326045
0.000323293
0.000319462
0.000314686
0.000309031
0.000302777
0.000295946
0.000288641
0.000281164
0.00027358
0.000265955
0.000258409
0.000250984
0.000243747
0.000236738
0.000230029
0.000223677
0.000217666
0.000212004
0.000206716
0.000201883
0.000197503
0.000193547
0.000189957
0.000186747
-8.44588e-05
-7.35148e-05
-6.20579e-05
-5.00007e-05
-3.73595e-05
-2.41158e-05
-1.0274e-05
4.16698e-06
1.92124e-05
3.48573e-05
5.10683e-05
6.77963e-05
8.49927e-05
0.00010258
0.000120472
0.000138645
0.000156946
0.000175217
0.000193265
0.000211038
0.000228405
0.000245083
0.000260921
0.000275702
0.000289291
0.000301548
0.000312267
0.000321322
0.000328744
0.000334307
0.000338164
0.000340579
0.000341416
0.000340893
0.000339008
0.000335919
0.000331701
0.000326524
0.000320471
0.000313778
0.000306558
0.000298875
0.000290954
0.000282964
0.000274894
0.000266884
0.000258998
0.000251311
0.0002439
0.000236824
0.000230123
0.000223811
0.000217906
0.000212416
0.000207361
0.000202725
0.000198502
0.000194653
0.000191238
-8.93581e-05
-7.79012e-05
-6.59086e-05
-5.32908e-05
-4.00625e-05
-2.62029e-05
-1.17088e-05
3.42317e-06
1.91904e-05
3.55794e-05
5.25624e-05
7.00981e-05
8.813e-05
0.000106574
0.000125342
0.000144356
0.000163493
0.000182612
0.000201541
0.000220178
0.000238341
0.000255778
0.000272323
0.000287748
0.000301925
0.000314703
0.000325867
0.000335266
0.00034289
0.000348573
0.00035245
0.000354792
0.000355497
0.000354767
0.000352605
0.000349162
0.000344548
0.000338933
0.000332438
0.000325257
0.000317543
0.000309405
0.00030101
0.000292499
0.000283926
0.000275403
0.000267032
0.000258893
0.000251057
0.000243574
0.000236485
0.000229811
0.000223569
0.000217767
0.00021241
0.000207494
0.000203024
0.00019896
0.000195363
-9.4683e-05
-8.26764e-05
-7.01073e-05
-5.68835e-05
-4.30201e-05
-2.84944e-05
-1.33011e-05
2.56281e-06
1.90911e-05
3.62665e-05
5.40599e-05
7.24298e-05
9.13187e-05
0.000110649
0.000130332
0.000150263
0.000170317
0.000190343
0.000210178
0.000229686
0.000248674
0.000266915
0.000284211
0.000300329
0.000315124
0.000328429
0.000340043
0.000349792
0.000357637
0.000363435
0.000367332
0.000369606
0.000370175
0.000369211