/*--------------------------------*- C++ -*----------------------------------*\
| =========                 |                                                 |
| \\      /  F ield         | OpenFOAM: The Open Source CFD Toolbox           |
|  \\    /   O peration     | Version:  2312                                  |
|   \\  /    A nd           | Website:  www.openfoam.com                      |
|    \\/     M anipulation  |                                                 |
\*---------------------------------------------------------------------------*/
FoamFile
{
    version     2.0;
    format      ascii;
    arch        "LSB;label=32;scalar=64";
    class       surfaceScalarField;
    location    "1200";
    object      phi;
}
// * * * * * * * * * * * * * * * * * * * * * * * * * * * * * * * * * * * * * //

dimensions      [0 3 -1 0 0 0 0];

oriented        oriented;

internalField   nonuniform List<scalar> 
116611
(
0.00109541
0.000402631
-0.0010795
-0.000418544
0.00111121
0.000397199
-0.00041299
0.00112703
0.000391462
-0.000407288
0.00114282
0.000385381
-0.000401164
0.00115828
0.00037883
-0.000394291
0.0011738
0.000371771
-0.000387299
0.00118848
0.000364229
-0.000378908
0.00120322
0.000356175
-0.000370907
0.00121774
0.000347609
-0.000362132
0.00123216
0.000338596
-0.000353018
0.00124623
0.000328974
-0.000343043
0.00126001
0.000318798
-0.000332583
0.00127347
0.000308031
-0.000321482
0.0012869
0.000296658
-0.000310096
0.00130015
0.000284732
-0.000297976
0.00131294
0.000272268
-0.000285063
0.0013256
0.000259002
-0.00027166
0.00133773
0.000245189
-0.000257322
0.00134944
0.000230537
-0.000242242
0.00136083
0.000215414
-0.000226805
0.00137208
0.000199336
-0.000210586
0.00138292
0.000182623
-0.000193465
0.00139346
0.000165173
-0.000175713
0.00140364
0.000146948
-0.000157128
0.00141325
0.000127911
-0.000137523
0.00142239
0.000108007
-0.000117143
0.00143102
8.71661e-05
-9.5797e-05
0.00143875
6.56391e-05
-7.33645e-05
0.00144607
4.30889e-05
-5.04117e-05
0.00145211
1.95807e-05
-2.56183e-05
0.00145763
-4.57865e-06
-9.44915e-07
0.00146221
-2.98843e-05
2.53084e-05
0.00146579
-5.61094e-05
5.25246e-05
0.00146868
-8.31287e-05
8.02433e-05
0.00147051
-0.000111422
0.000109585
0.00147159
-0.000140589
0.000139516
0.00147159
-0.000171114
0.000171117
0.00147074
-0.00020259
0.000203432
0.00146914
-0.000235052
0.000236654
0.00146674
-0.000268796
0.000271198
0.00146358
-0.000303653
0.000306813
0.00145957
-0.000339926
0.000343933
0.00145498
-0.000377334
0.000381932
0.00144931
-0.000416026
0.000421688
0.00144323
-0.000456005
0.000462094
0.00143592
-0.00049744
0.000504747
0.00142768
-0.000540357
0.000548594
0.00141809
-0.000584698
0.00059429
0.00140734
-0.000630546
0.000641299
0.00139502
-0.000677953
0.000690265
0.00138121
-0.000726988
0.0007408
0.00136584
-0.000777709
0.000793081
0.00134884
-0.000830184
0.000847188
0.00133029
-0.000884559
0.000903109
0.00131052
-0.000940966
0.000960736
0.00128861
-0.000999907
0.00102181
0.00126536
-0.00106129
0.00108455
0.00123998
-0.00112563
0.00115101
0.00121225
-0.00119321
0.00122093
0.00118243
-0.00126411
0.00129393
0.00115102
-0.00133835
0.00136976
0.00111763
-0.00141741
0.0014508
0.00108174
-0.00150183
0.00153772
0.00104403
-0.00159206
0.00162977
0.00100611
-0.00168977
0.00172769
0.000965183
-0.00179873
0.00183966
0.000921195
-0.00191468
0.00195867
0.000864815
-0.00201355
0.00206993
-0.00205475
0.000782606
0.00213696
0.00107874
0.000386804
-0.00106292
0.00109438
0.000381559
0.00110991
0.000375933
0.00112538
0.000369916
0.00114075
0.000363457
0.00115595
0.000356574
0.00117092
0.00034926
0.00118564
0.000341454
0.0012001
0.00033315
0.00121437
0.000324317
0.00122839
0.000314957
0.00124213
0.000305063
0.00125555
0.000294608
0.00126865
0.000283558
0.00128144
0.000271936
0.00129403
0.000259684
0.00130622
0.000246814
0.00131811
0.000233292
0.00132953
0.000219122
0.00134069
0.000204255
0.00135135
0.000188673
0.00136159
0.000172383
0.0013714
0.000155359
0.00138078
0.000137573
0.00138969
0.000119003
0.00139809
9.96078e-05
0.00140585
7.94036e-05
0.00141311
5.83822e-05
0.00141971
3.64806e-05
0.00142559
1.37052e-05
0.00143095
-9.94173e-06
0.00143556
-3.44906e-05
0.00143942
-5.99754e-05
0.00144271
-8.64158e-05
0.0014452
-0.000113909
0.00144704
-0.000142431
0.00144797
-0.000172046
0.00144809
-0.000202709
0.00144748
-0.000234442
0.00144602
-0.000267336
0.00144377
-0.0003014
0.00144052
-0.000336683
0.00143634
-0.000373148
0.00143116
-0.000410847
0.00142499
-0.000449838
0.00141769
-0.000490144
0.00140916
-0.000531823
0.00139934
-0.000574879
0.00138819
-0.000619395
0.00137563
-0.000665397
0.00136161
-0.000712967
0.00134608
-0.000762179
0.00132902
-0.00081312
0.00131039
-0.000865931
0.00129019
-0.000920768
0.00126817
-0.000977887
0.00124433
-0.00103745
0.00121843
-0.00109973
0.00119027
-0.00116505
0.00115979
-0.00123363
0.00112732
-0.00130587
0.0010924
-0.00138249
0.00105489
-0.00146432
0.00101524
-0.00155241
0.000974323
-0.00164886
0.000931523
-0.00175593
0.000882032
-0.00186519
0.000809572
-0.00194109
-0.00194701
0.000701828
0.00106198
0.000370766
-0.00104595
0.00107778
0.000365762
0.00109335
0.000360364
0.00110872
0.000354542
0.0011239
0.000348282
0.00113889
0.000341581
0.00115372
0.000334431
0.00116835
0.000326822
0.00118276
0.000318739
0.00119693
0.000310156
0.00121082
0.000301059
0.00122445
0.000291433
0.0012378
0.000281265
0.00125082
0.000270533
0.00126354
0.000259221
0.00127592
0.000247305
0.00128795
0.000234777
0.00129963
0.000221615
0.00131094
0.000207808
0.00132187
0.000193332
0.00133236
0.000178179
0.00134242
0.000162322
0.00135204
0.000145744
0.00136119
0.000128424
0.00136985
0.000110342
0.00137798
9.14768e-05
0.00138557
7.18127e-05
0.00139262
5.13294e-05
0.00139909
3.00111e-05
0.00140497
7.82845e-06
0.00141023
-1.52015e-05
0.00141485
-3.91082e-05
0.00141882
-6.39474e-05
0.00142214
-8.97427e-05
0.00142476
-0.000116523
0.00142664
-0.000144312
0.00142772
-0.000173131
0.00142802
-0.000203001
0.00142751
-0.000233937
0.00142615
-0.000265976
0.0014239
-0.000299145
0.00142068
-0.000333464
0.00141648
-0.000368952
0.00141127
-0.000405633
0.00140497
-0.000443541
0.00139753
-0.000482705
0.00138888
-0.000523171
0.00137897
-0.000564974
0.00136775
-0.000608169
0.00135516
-0.000652803
0.00134113
-0.000698944
0.00132562
-0.000746671
0.00130857
-0.00079607
0.00128991
-0.000847261
0.00126952
-0.000900386
0.00124726
-0.000955624
0.00122299
-0.00101318
0.00119654
-0.00107328
0.00116773
-0.00113624
0.00113647
-0.00120237
0.00110268
-0.00127208
0.00106621
-0.00134602
0.00102702
-0.00142512
0.000985482
-0.00151088
0.000942315
-0.00160569
0.000896041
-0.00170965
0.000836606
-0.00180576
0.000743567
-0.00184806
-0.00181614
0.000612701
0.00104486
0.000354655
-0.00102875
0.00106079
0.000349832
0.00107651
0.000344651
0.00109199
0.000339062
0.00110723
0.000333044
0.00112222
0.000326582
0.00113699
0.000319664
0.00115153
0.000312284
0.00116584
0.000304433
0.00117989
0.000296097
0.00119369
0.00028726
0.00120722
0.000277906
0.00122046
0.00026802
0.00123341
0.000257587
0.00124604
0.000246589
0.00125834
0.000235011
0.00127028
0.000222832
0.00128186
0.000210037
0.00129306
0.000196609
0.00130386
0.000182532
0.00131425
0.000167789
0.00132421
0.000152361
0.00133372
0.00013623
0.00134277
0.000119376
0.00135133
0.000101781
0.00135939
8.34234e-05
0.00136691
6.42843e-05
0.0013739
4.43469e-05
0.00138031
2.35961e-05
0.00138614
2.00498e-06
0.00139134
-2.04085e-05
0.00139593
-4.36951e-05
0.00139987
-6.78903e-05
0.00140315
-9.30159e-05
0.00140572
-0.000119095
0.00140756
-0.000146151
0.00140863
-0.000174208
0.00140892
-0.000203285
0.00140838
-0.0002334
0.00140698
-0.000264577
0.00140468
-0.000296841
0.00140143
-0.000330212
0.00139718
-0.000364709
0.00139191
-0.000400355
0.00138554
-0.00043718
0.00137805
-0.000475215
0.00136938
-0.0005145
0.00135948
-0.000555071
0.00134829
-0.000596976
0.00133575
-0.000640264
0.00132179
-0.000684991
0.00130635
-0.000731224
0.00128932
-0.00077904
0.00127059
-0.000828538
0.00125005
-0.000879841
0.00122753
-0.000933102
0.00120286
-0.000988512
0.00117588
-0.0010463
0.00114639
-0.00110675
0.0011142
-0.00117019
0.00107917
-0.00123705
0.00104115
-0.001308
0.0010002
-0.00138417
0.000956781
-0.00146746
0.000911204
-0.00156011
0.000859436
-0.00165788
0.00078531
-0.00173163
0.00066874
-0.00173149
-0.00166642
0.000519016
0.00102831
0.000338845
-0.0010125
0.00104405
0.000334092
0.00105968
0.000329029
0.00107514
0.0003236
0.00109041
0.000317777
0.00110545
0.000311537
0.00112025
0.000304861
0.0011348
0.000297735
0.00114909
0.000290143
0.00116312
0.000282073
0.00117687
0.00027351
0.00119033
0.00026444
0.0012035
0.000254849
0.00121637
0.000244722
0.00122891
0.000234044
0.00124112
0.0002228
0.00125298
0.000210972
0.00126448
0.000198544
0.00127559
0.000185498
0.0012863
0.000171819
0.0012966
0.000157489
0.00130647
0.00014249
0.0013159
0.000126805
0.00132486
0.000110416
0.00133334
9.33035e-05
0.00134131
7.54491e-05
0.00134876
5.68349e-05
0.00135566
3.7444e-05
0.001362
1.72578e-05
0.00136775
-3.74081e-06
0.00137289
-2.55508e-05
0.00137741
-4.82186e-05
0.00138129
-7.17702e-05
0.0013845
-9.62269e-05
0.00138702
-0.00012161
0.00138881
-0.00014794
0.00138984
-0.000175237
0.00139007
-0.000203522
0.00138948
-0.000232811
0.00138803
-0.000263126
0.00138568
-0.000294487
0.00138238
-0.000326915
0.0013781
-0.000360432
0.00137281
-0.000395059
0.00136645
-0.000430826
0.001359
-0.000467761
0.0013504
-0.000505895
0.00134059
-0.000545264
0.00132952
-0.000585904
0.00131711
-0.000627856
0.00130328
-0.000671162
0.00128793
-0.000715875
0.00127095
-0.000762058
0.0012522
-0.000809792
0.00123154
-0.000859181
0.0012088
-0.000910361
0.0011838
-0.000963505
0.00115632
-0.00101882
0.00112615
-0.00107658
0.00109304
-0.00113708
0.00105677
-0.00120078
0.00101724
-0.00126847
0.000974667
-0.0013416
0.000929547
-0.00142234
0.00088104
-0.00151161
0.000820596
-0.00159744
0.000726672
-0.0016377
0.000586555
-0.00159137
-0.00150576
0.000425901
0.00101315
0.000323452
-0.000997759
0.0010285
0.000318746
0.00104378
0.00031375
0.00105896
0.000308415
0.00107402
0.000302718
0.00108892
0.000296636
0.00110363
0.000290151
0.00111813
0.000283241
0.00113238
0.000275889
0.00114637
0.000268077
0.0011601
0.000259789
0.00117353
0.000251008
0.00118666
0.00024172
0.00119947
0.000231908
0.00121196
0.000221559
0.0012241
0.000210655
0.00123589
0.000199182
0.00124731
0.000187123
0.00125835
0.000174462
0.00126898
0.000161182
0.00127921
0.000147267
0.001289
0.000132699
0.00129834
0.000117462
0.00130722
0.000101537
0.00131562
8.49079e-05
0.00132351
6.75561e-05
0.00133088
4.94642e-05
0.00133771
3.06157e-05
0.00134398
1.0988e-05
0.00134966
-9.42032e-06
0.00135474
-3.06297e-05
0.00135919
-5.26772e-05
0.00136301
-7.55849e-05
0.00136615
-9.9372e-05
0.0013686
-0.000124058
0.00137033
-0.000149662
0.00137129
-0.000176202
0.00137147
-0.000203699
0.00137083
-0.000232169
0.00136933
-0.000261633
0.00136696
-0.000292112
0.00136367
-0.000323624
0.00135942
-0.00035619
0.0013542
-0.000389833
0.00134795
-0.000424575
0.00134063
-0.000460441
0.00133218
-0.000497453
0.00132256
-0.000535638
0.00131168
-0.000575022
0.00129945
-0.000615631
0.00128579
-0.000657496
0.00127056
-0.000700654
0.00125366
-0.000745156
0.00123493
-0.000791064
0.00121422
-0.000838467
0.00119134
-0.000887478
0.00116607
-0.000938243
0.00113819
-0.000990941
0.0011074
-0.00104579
0.00107341
-0.00110309
0.00103599
-0.00116336
0.000995174
-0.00122765
0.00095133
-0.00129775
0.000904601
-0.00137561
0.000851652
-0.00145866
0.0007778
-0.00152359
0.000659949
-0.00151985
0.000499806
-0.00143123
-0.00134359
0.000337628
0.000999316
0.000308321
-0.000984185
0.00101435
0.000303715
0.00102928
0.000298817
0.00104411
0.000293585
0.00105883
0.000288
0.00107342
0.000282048
0.00108785
0.000275713
0.00110212
0.000268978
0.00111618
0.000261826
0.00113002
0.000254237
0.00114362
0.000246195
0.00115694
0.000237682
0.00116998
0.000228681
0.00118271
0.000219175
0.00119513
0.000209148
0.0012072
0.000198582
0.00121892
0.000187463
0.00123027
0.000175773
0.00124123
0.000163497
0.0012518
0.000150617
0.00126195
0.000137118
0.00127166
0.000122983
0.00128093
0.000108194
0.00128973
9.27356e-05
0.00129805
7.65899e-05
0.00130586
5.97403e-05
0.00131316
4.21692e-05
0.00131991
2.38612e-05
0.00132611
4.79329e-06
0.00133172
-1.5027e-05
0.00133672
-3.56366e-05
0.00134111
-5.70642e-05
0.00134485
-7.93296e-05
0.00134793
-0.000102451
0.00135032
-0.000126446
0.00135199
-0.000151333
0.00135292
-0.000177132
0.00135308
-0.000203859
0.00135245
-0.000231534
0.00135099
-0.000260175
0.00134868
-0.0002898
0.00134548
-0.000320429
0.00134137
-0.000352078
0.0013363
-0.000384766
0.00133024
-0.000418509
0.00132312
-0.000453324
0.00131489
-0.000489226
0.00130549
-0.000526231
0.00129482
-0.000564354
0.0012828
-0.000603609
0.00126932
-0.000644017
0.00125426
-0.0006856
0.0012375
-0.000728393
0.00121888
-0.000772442
0.00119822
-0.00081781
0.00117533
-0.000864581
0.00114994
-0.00091286
0.00112177
-0.000962771
0.00109048
-0.00101449
0.00105574
-0.00106835
0.00101744
-0.00112506
0.00097579
-0.001186
0.000931138
-0.0012531
0.000882416
-0.00132689
0.000821868
-0.00139811
0.000728689
-0.00143041
0.000585323
-0.00137649
0.000411819
-0.00125772
-0.00118824
0.000256468
0.000986265
0.000293275
-0.000971219
0.00100116
0.000288818
0.00101591
0.000284069
0.00103051
0.000278985
0.00104496
0.00027355
0.00105926
0.000267751
0.00107339
0.000261576
0.00108736
0.000255014
0.00110113
0.000248048
0.00111471
0.000240664
0.00112806
0.000232845
0.00114116
0.000224576
0.00115401
0.000215839
0.00116656
0.000206617
0.00117882
0.000196893
0.00119075
0.00018665
0.00120234
0.000175872
0.00121357
0.000164542
0.00122443
0.000152642
0.00123489
0.000140157
0.00124494
0.000127069
0.00125456
0.000113361
0.00126374
9.90186e-05
0.00127245
8.40231e-05
0.00128068
6.83584e-05
0.00128841
5.20079e-05
0.00129563
3.49551e-05
0.0013023
1.71833e-05
0.00130842
-1.32379e-06
0.00131396
-2.05659e-05
0.00131891
-4.05837e-05
0.00132324
-6.14006e-05
0.00132695
-8.30345e-05
0.00133
-0.000105503
0.00133238
-0.000128824
0.00133406
-0.000153014
0.00133502
-0.000178092
0.00133523
-0.000204074
0.00133468
-0.000230979
0.00133333
-0.000258823
0.00133115
-0.000287622
0.00132811
-0.000317391
0.00132418
-0.000348144
0.0013193
-0.000379893
0.00131345
-0.000412649
0.00130654
-0.000446422
0.00129854
-0.00048122
0.00128936
-0.000517049
0.00127892
-0.000553915
0.00126713
-0.000591824
0.00125389
-0.000630781
0.00123909
-0.000670795
0.00122258
-0.000711882
0.0012042
-0.000754064
0.00118376
-0.000797371
0.00116102
-0.000841843
0.00113569
-0.000887522
0.00110739
-0.000934478
0.00107578
-0.000982881
0.00104062
-0.00103319
0.00100199
-0.00108643
0.000960216
-0.00114423
0.00091507
-0.00120795
0.000862725
-0.00127455
0.000789181
-0.00132456
0.000670893
-0.00131212
0.000504046
-0.00120964
0.000325716
-0.00107939
-0.00104506
0.000182541
0.000973604
0.000278251
-0.00095858
0.000988464
0.000273958
0.00100315
0.000269382
0.00101766
0.000264478
0.00103198
0.000259226
0.00104612
0.000253614
0.00106006
0.000247633
0.00107381
0.000241268
0.00108735
0.000234509
0.00110067
0.000227341
0.00111377
0.00021975
0.00112662
0.000211722
0.00113922
0.000203242
0.00115154
0.000194294
0.00116357
0.000184861
0.00117529
0.000174928
0.00118669
0.000164477
0.00119774
0.000153492
0.00120842
0.000141957
0.00121872
0.000129853
0.00122863
0.000117165
0.00123811
0.000103876
0.00124716
8.99687e-05
0.00125576
7.54271e-05
0.00126388
6.02343e-05
0.00127152
4.43738e-05
0.00127864
2.783e-05
0.00128524
1.0583e-05
0.00129129
-7.37115e-06
0.00129678
-2.60514e-05
0.00130169
-4.54923e-05
0.001306
-6.57137e-05
0.0013097
-8.67327e-05
0.00131276
-0.000108566
0.00131517
-0.000131231
0.0013169
-0.000154744
0.00131793
-0.000179121
0.00131823
-0.000204379
0.00131778
-0.000230533
0.00131656
-0.000257598
0.00131452
-0.000285586
0.00131164
-0.000314509
0.00130788
-0.000344378
0.00130318
-0.0003752
0.00129752
-0.000406982
0.00129082
-0.000439727
0.00128304
-0.000473438
0.0012741
-0.000508114
0.00126394
-0.000543751
0.00125246
-0.000580345
0.00123956
-0.000617886
0.00122514
-0.000656367
0.00120903
-0.000695778
0.00119108
-0.000736109
0.00117105
-0.000777344
0.00114866
-0.000819458
0.00112357
-0.000862429
0.00109539
-0.000906298
0.00106384
-0.000951331
0.0010289
-0.00099825
0.000990853
-0.00104838
0.000949771
-0.00110315
0.000903604
-0.00116179
0.000843681
-0.00121462
0.000749675
-0.00123056
0.000602815
-0.00116526
0.000418117
-0.00102494
0.00024316
-0.000904436
-0.000916713
0.000114811
0.000961276
0.000263273
-0.000946298
0.000976097
0.000259137
0.000990746
0.000254734
0.00100521
0.000250013
0.00101948
0.000244955
0.00103355
0.000239548
0.0010474
0.000233779
0.00106103
0.000227636
0.00107444
0.000221105
0.0010876
0.000214174
0.00110052
0.00020683
0.00111319
0.000199059
0.00112558
0.000190847
0.0011377
0.000182179
0.00114952
0.000173041
0.00116103
0.000163416
0.00117222
0.000153289
0.00118307
0.000142643
0.00119356
0.000131464
0.00120368
0.000119733
0.00121341
0.000107435
0.00122273
9.45526e-05
0.00123163
8.10699e-05
0.00124009
6.69701e-05
0.00124809
5.22369e-05
0.00125561
3.68536e-05
0.00126263
2.08051e-05
0.00126914
4.07062e-06
0.00127512
-1.33474e-05
0.00128055
-3.14833e-05
0.00128542
-5.03633e-05
0.00128971
-7.00053e-05
0.00129341
-9.04255e-05
0.00129648
-0.00011164
0.00129891
-0.000133665
0.00130069
-0.000156515
0.00130177
-0.000180206
0.00130215
-0.000204754
0.00130178
-0.00023017
0.00130065
-0.000256468
0.00129873
-0.000283659
0.00129597
-0.000311751
0.00129234
-0.000340753
0.00128781
-0.000370668
0.00128233
-0.000401501
0.00127586
-0.000433251
0.00126833
-0.000465915
0.0012597
-0.000499483
0.00124989
-0.000533944
0.00123883
-0.00056928
0.00122641
-0.000605466
0.00121252
-0.000642474
0.001197
-0.000680262
0.00117967
-0.000718775
0.00116026
-0.000757934
0.00113844
-0.000797643
0.00111386
-0.000837846
0.00108622
-0.000878658
0.00105547
-0.000920583
0.00102188
-0.000964656
0.000985634
-0.00101214
0.000945499
-0.00106302
0.000895693
-0.00111198
0.000820991
-0.00113992
0.000698745
-0.00110831
0.000524164
-0.00099068
0.000330072
-0.000830851
0.000164881
-0.000739244
-0.000799456
4.76248e-05
0.000949425
0.000248384
-0.000934535
0.000964165
0.000244397
0.000978741
0.000240158
0.000993139
0.000235615
0.00100735
0.000230748
0.00102135
0.000225544
0.00103514
0.000219991
0.0010487
0.000214074
0.00106202
0.000207782
0.0010751
0.0002011
0.00108791
0.000194016
0.00110046
0.000186515
0.00111272
0.000178583
0.00112469
0.000170207
0.00113636
0.000161373
0.00114771
0.000152064
0.00115873
0.000142265
0.00116942
0.000131963
0.00117974
0.000121139
0.00118969
0.000109779
0.00119926
9.78674e-05
0.00120843
8.53868e-05
0.00121718
7.23215e-05
0.00122549
5.86553e-05
0.00123335
4.4372e-05
0.00124075
2.94558e-05
0.00124767
1.38897e-05
0.00125408
-2.33936e-06
0.00125997
-1.92387e-05
0.00126533
-3.6844e-05
0.00127014
-5.5176e-05
0.00127439
-7.42513e-05
0.00127805
-9.40852e-05
0.0012811
-0.000114693
0.00128353
-0.000136089
0.0012853
-0.00015829
0.0012864
-0.000181308
0.00128681
-0.000205158
0.00128649
-0.000229852
0.00128542
-0.000255401
0.00128358
-0.000281815
0.00128093
-0.000309101
0.00127744
-0.000337266
0.00127308
-0.000366312
0.00126782
-0.00039624
0.00126162
-0.000427045
0.00125442
-0.000458717
0.00124618
-0.000491243
0.00123683
-0.000524599
0.00122631
-0.000558755
0.00121451
-0.000593669
0.00120132
-0.000629285
0.00118658
-0.000665519
0.00117006
-0.000702255
0.00115147
-0.000739347
0.0011305
-0.000776669
0.00110689
-0.000814238
0.00108064
-0.000852405
0.00105204
-0.00089198
0.00102137
-0.000933995
0.000987805
-0.00097857
0.000946953
-0.00102216
0.000887149
-0.00105218
0.000787646
-0.00104042
0.000632418
-0.000953085
0.0004361
-0.000794362
0.00024237
-0.000637122
9.11148e-05
-0.000587989
-0.000692462
-1.58796e-05
0.000938241
0.000233616
-0.000923473
0.000952864
0.000229774
0.000967328
0.000225694
0.000981618
0.000221324
0.000995723
0.000216643
0.00100963
0.000211638
0.00102332
0.000206296
0.00103679
0.000200604
0.00105003
0.000194549
0.00106301
0.000188117
0.00107573
0.000181295
0.00108818
0.000174068
0.00110034
0.000166423
0.0011122
0.000158346
0.00112375
0.000149821
0.00113498
0.000140834
0.00114587
0.000131371
0.00115642
0.000121415
0.00116661
0.000110952
0.00117642
9.99655e-05
0.00118585
8.84404e-05
0.00119488
7.63607e-05
0.00120349
6.37107e-05
0.00121167
5.04745e-05
0.0012194
3.66364e-05
0.00122668
2.21813e-05
0.00123348
7.09023e-06
0.00123978
-8.63868e-06
0.00124557
-2.50308e-05
0.00125084
-4.21147e-05
0.00125557
-5.99081e-05
0.00125975
-7.84264e-05
0.00126335
-9.76844e-05
0.00126635
-0.000117697
0.00126874
-0.000138478
0.00127049
-0.000160043
0.00127159
-0.000182405
0.00127201
-0.000205577
0.00127173
-0.000229571
0.00127072
-0.000254397
0.00126897
-0.000280065
0.00126645
-0.000306581
0.00126314
-0.00033395
0.001259
-0.000362174
0.00125401
-0.00039125
0.00124814
-0.00042117
0.00124134
-0.00045192
0.00123358
-0.00048348
0.0012248
-0.000515819
0.00121493
-0.000548892
0.0012039
-0.000582635
0.00119156
-0.000616952
0.00117775
-0.000651705
0.00116221
-0.00068672
0.00114471
-0.000721838
0.00112506
-0.000757028
0.00110339
-0.000792562
0.00108009
-0.000829101
0.00105556
-0.000867458
0.00102918
-0.000907615
0.000997216
-0.000946602
0.000949875
-0.000974822
0.000869091
-0.000971394
0.000735216
-0.000906542
0.0005487
-0.000766569
0.000341104
-0.000586766
0.000156717
-0.000452734
2.11265e-05
-0.000452398
-0.000590243
-8.10925e-05
0.000927896
0.000218987
-0.000913268
0.00094238
0.00021529
0.000956706
0.000211369
0.00097086
0.00020717
0.00098483
0.000202673
0.000998604
0.000197864
0.00101217
0.000192731
0.00102551
0.000187261
0.00103862
0.000181441
0.00105148
0.000175257
0.00106408
0.000168695
0.0010764
0.000161742
0.00108844
0.000154384
0.00110019
0.000146605
0.00111161
0.000138392
0.00112272
0.00012973
0.00113349
0.000120603
0.0011439
0.000110997
0.00115396
0.000100896
0.00116364
9.0284e-05
0.00117294
7.91467e-05
0.00118183
6.74681e-05
0.00119031
5.52327e-05
0.00119836
4.2425e-05
0.00120596
2.90296e-05
0.00121311
1.5031e-05
0.00121979
4.14478e-07
0.00122597
-1.48235e-05
0.00123166
-3.07172e-05
0.00123683
-4.72882e-05
0.00124148
-6.45524e-05
0.00124558
-8.25246e-05
0.00124911
-0.000101219
0.00125206
-0.000120651
0.00125442
-0.000140834
0.00125616
-0.000161782
0.00125726
-0.000183508
0.00125771
-0.000206027
0.00125749
-0.000229348
0.00125657
-0.000253483
0.00125495
-0.00027844
0.0012526
-0.000304226
0.00124949
-0.000330845
0.00124561
-0.000358296
0.00124094
-0.000386577
0.00123545
-0.000415679
0.00122911
-0.000445584
0.0012219
-0.000476268
0.00121377
-0.00050769
0.00120466
-0.000539786
0.00119449
-0.000572459
0.0011831
-0.000605564
0.00117032
-0.000638925
0.00115599
-0.000672386
0.00114007
-0.000705925
0.00112285
-0.000739806
0.00110491
-0.000774624
0.00108682
-0.000811011
0.00106805
-0.000848685
0.00104508
-0.000884642
0.00100891
-0.000910437
0.000943257
-0.000909166
0.000828366
-0.000856503
0.000656945
-0.000735121
0.000448781
-0.000558405
0.000242826
-0.000380811
7.44668e-05
-0.000284376
-4.69744e-05
-0.000330957
-0.000493025
-0.000144192
0.00091851
0.000204502
-0.000904025
0.000932849
0.000200951
0.000947026
0.000197191
0.000961031
0.000193166
0.00097485
0.000188854
0.000988472
0.000184243
0.00100188
0.000179319
0.00101507
0.000174072
0.00102803
0.000168486
0.00104074
0.000162549
0.00105318
0.000156248
0.00106536
0.000149568
0.00107725
0.000142495
0.00108884
0.000135015
0.00110012
0.000127113
0.00111107
0.000118774
0.00112169
0.000109984
0.00113196
0.000100726
0.00114187
9.09868e-05
0.00115141
8.07494e-05
0.00116055
6.99988e-05
0.0011693
5.87196e-05
0.00117764
4.68965e-05
0.00118555
3.45142e-05
0.00119302
2.15579e-05
0.00120004
8.01014e-06
0.00120659
-6.13352e-06
0.00121266
-2.08935e-05
0.00121824
-3.62989e-05
0.00122332
-5.23675e-05
0.00122788
-6.91143e-05
0.00123191
-8.65537e-05
0.00123539
-0.0001047
0.00123831
-0.000123568
0.00124065
-0.000143171
0.00124239
-0.000163523
0.00124352
-0.000184638
0.00124402
-0.000206529
0.00124388
-0.000229206
0.00124308
-0.000252681
0.0012416
-0.000276962
0.00123943
-0.000302056
0.00123655
-0.000327968
0.00123295
-0.000354699
0.00122862
-0.000382245
0.00122354
-0.0004106
0.0012177
-0.000439745
0.00121108
-0.000469649
0.00120365
-0.000500252
0.00119532
-0.000531462
0.00118601
-0.000563147
0.0011756
-0.00059515
0.00116403
-0.000627362
0.00115147
-0.000659825
0.00113842
-0.000692867
0.00112569
-0.000727082
0.00111402
-0.000762955
0.00110288
-0.000799873
0.00108865
-0.000834453
0.00106242
-0.00085841
0.00100871
-0.000856727
0.00090864
-0.000809095
0.00075216
-0.000700023
0.000551383
-0.000534345
0.000337751
-0.000344773
0.000145966
-0.000189025
-2.10378e-06
-0.000136306
-0.000112658
-0.000220403
-0.00039131
-0.000214373
0.00091014
0.000190151
-0.000895789
0.000924339
0.000186752
0.000938373
0.000183158
0.000952229
0.00017931
0.000965896
0.000175187
0.000979362
0.000170777
0.000992614
0.000166067
0.00100564
0.000161044
0.00101843
0.000155696
0.00103097
0.000150009
0.00104325
0.00014397
0.00105525
0.000137564
0.00106697
0.000130778
0.00107839
0.000123597
0.00108949
0.000116006
0.00110028
0.000107991
0.00111072
9.95368e-05
0.00112082
9.06274e-05
0.00113056
8.12477e-05
0.00113993
7.13823e-05
0.00114891
6.10158e-05
0.0011575
5.01327e-05
0.00116568
3.87177e-05
0.00117344
2.67559e-05
0.00118076
1.42318e-05
0.00118764
1.13094e-06
0.00119406
-1.25505e-05
0.00120001
-2.68449e-05
0.00120549
-4.17737e-05
0.00121047
-5.73527e-05
0.00121495
-7.35961e-05
0.00121892
-9.05182e-05
0.00122235
-0.000108133
0.00122524
-0.000126455
0.00122756
-0.000145498
0.00122932
-0.000165275
0.00123048
-0.000185801
0.00123104
-0.000207088
0.00123098
-0.000229147
0.00123029
-0.00025199
0.00122895
-0.000275628
0.00122697
-0.000300068
0.00122432
-0.000325317
0.001221
-0.00035138
0.00121701
-0.000378257
0.00121235
-0.000405938
0.001207
-0.000434401
0.00120095
-0.000463596
0.00119414
-0.000493441
0.0011865
-0.00052383
0.00117802
-0.000554657
0.00116876
-0.000585898
0.00115912
-0.000617717
0.00114985
-0.000650557
0.00114203
-0.000685049
0.00113648
-0.000721529
0.00113249
-0.000758969
0.001126
-0.000793383
0.00110766
-0.000816114
0.00106218
-0.000812929
0.000971772
-0.000766317
0.000826684
-0.000664007
0.000635894
-0.000509233
0.000425069
-0.00032352
0.000224207
-0.000143911
5.70068e-05
-2.18249e-05
-6.97824e-05
-9.51692e-06
-0.000172491
-0.000117694
-0.000291279
-0.000272522
0.00090279
0.000175919
-0.000888557
0.000916864
0.000172677
0.000930767
0.000169255
0.000944485
0.000165591
0.000958008
0.000161664
0.000971324
0.000157461
0.000984422
0.000152969
0.000997288
0.000148177
0.00100991
0.000143072
0.00102228
0.000137639
0.00103439
0.000131866
0.00104621
0.000125739
0.00105775
0.000119242
0.00106898
0.000112363
0.0010799
0.000105086
0.0010905
9.73965e-05
0.00110075
8.92784e-05
0.00111066
8.07169e-05
0.00112022
7.16963e-05
0.0011294
6.22011e-05
0.0011382
5.22157e-05
0.00114661
4.17249e-05
0.00115461
3.07132e-05
0.0011622
1.91658e-05
0.00116937
7.06591e-06
0.00117609
-5.59249e-06
0.00118237
-1.88285e-05
0.00118819
-3.26702e-05
0.00119355
-4.71349e-05
0.00119844
-6.22373e-05
0.00120283
-7.79915e-05
0.00120673
-9.44114e-05
0.0012101
-0.000111511
0.00121295
-0.000129304
0.00121526
-0.000147805
0.00121701
-0.000167028
0.0012182
-0.000186985
0.0012188
-0.00020769
0.00121881
-0.000229156
0.00121821
-0.000251396
0.00121701
-0.000274421
0.00121518
-0.000298244
0.00121274
-0.000322875
0.00120968
-0.000348321
0.00120601
-0.00037458
0.0012017
-0.000401633
0.00119674
-0.000429443
0.0011911
-0.000457949
0.00118474
-0.000487084
0.00117774
-0.000516828
0.00117037
-0.000547285
0.00116325
-0.000578781
0.00115743
-0.000611894
0.00115414
-0.000647273
0.00115412
-0.000685028
0.00115618
-0.000723588
0.0011554
-0.000758187
0.00114155
-0.000779535
0.00109921
-0.000773778
0.0010121
-0.000725819
0.000872948
-0.000627161
0.000691285
-0.000482344
0.000489542
-0.00030749
0.000292258
-0.000126236
0.000118536
2.98117e-05
-2.0845e-05
0.000117556
-0.000130054
9.96925e-05
-0.000227329
-2.04198e-05
-0.000196706
-0.000321902
0.000896452
0.000161788
-0.000882321
0.000910417
0.000158712
0.000924204
0.000155469
0.000937799
0.000151996
0.000951191
0.000148272
0.000964369
0.000144283
0.00097732
0.000140018
0.000990034
0.000135463
0.0010025
0.000130607
0.0010147
0.000125436
0.00102663
0.000119935
0.00103828
0.000114092
0.00104963
0.000107891
0.00106068
0.000101319
0.0010714
9.43595e-05
0.0010818
8.69982e-05
0.00109186
7.92193e-05
0.00110157
7.10073e-05
0.00111092
6.23463e-05
0.0011199
5.32207e-05
0.0011285
4.36149e-05
0.00113671
3.35131e-05
0.00114453
2.29004e-05
0.00115193
1.1761e-05
0.00115891
8.22472e-08
0.00116547
-1.21438e-05
0.00117158
-2.49468e-05
0.00117726
-3.83475e-05
0.00118249
-5.23611e-05
0.00118725
-6.70015e-05
0.00119154
-8.2282e-05
0.00119535
-9.82164e-05
0.00119865
-0.000114818
0.00120145
-0.000132101
0.00120372
-0.000150079
0.00120546
-0.000168765
0.00120665
-0.000188173
0.00120728
-0.000208318
0.00120734
-0.000229214
0.00120682
-0.000250877
0.00120572
-0.00027332
0.00120403
-0.000296559
0.00120176
-0.000320602
0.00119889
-0.000345449
0.00119539
-0.000371088
0.00119125
-0.000397492
0.00118644
-0.000424632
0.00118101
-0.000452514
0.00117516
-0.000481234
0.00116939
-0.00051106
0.00116459
-0.000542489
0.00116201
-0.000576201
0.00116288
-0.000612757
0.00116748
-0.00065188
0.00117372
-0.000691266
0.00117535
-0.000725216
0.00116094
-0.000743773
0.00111499
-0.000733591
0.00102361
-0.000682398
0.000884061
-0.000586268
0.000709171
-0.000452271
0.000520071
-0.000293244
0.000336018
-0.000123437
0.000169713
4.00686e-05
2.81551e-05
0.00017137
-8.67265e-05
0.000232437
-0.000182113
0.000195079
-0.000273647
7.11142e-05
-0.000101018
-0.000369334
0.000891136
0.000147749
-0.000877096
0.000905004
0.000144844
0.000918685
0.000141787
0.000932167
0.000138514
0.000945438
0.000135001
0.000958487
0.000131234
0.000971301
0.000127203
0.00098387
0.000122895
0.00099618
0.000118297
0.00100822
0.000113394
0.00101998
0.000108175
0.00103145
0.000102623
0.00104262
9.67253e-05
0.00105347
9.04665e-05
0.001064
8.38313e-05
0.00107419
7.6804e-05
0.00108404
6.9369e-05
0.00109354
6.151e-05
0.00110267
5.32112e-05
0.00111144
4.44564e-05
0.00111982
3.52297e-05