/*--------------------------------*- C++ -*----------------------------------*\
| =========                 |                                                 |
| \\      /  F ield         | OpenFOAM: The Open Source CFD Toolbox           |
|  \\    /   O peration     | Version:  2312                                  |
|   \\  /    A nd           | Website:  www.openfoam.com                      |
|    \\/     M anipulation  |                                                 |
\*---------------------------------------------------------------------------*/
FoamFile
{
    version     2.0;
    format      ascii;
    arch        "LSB;label=32;scalar=64";
    class       volVectorField;
    location    "1200";
    object      U;
}
// * * * * * * * * * * * * * * * * * * * * * * * * * * * * * * * * * * * * * //

dimensions      [0 1 -1 0 0 0 0];

internalField   nonuniform List<vector> 
76025
(
(0.0367411 -0.00739985 0)
(0.036895 -0.00750574 1.23462e-21)
(0.03706 -0.00760805 0)
(0.0372369 -0.00771078 0)
(0.0373998 -0.00780458 -2.33462e-21)
(0.0375811 -0.00790564 -4.57297e-21)
(0.037746 -0.00799708 7.94513e-21)
(0.0379114 -0.00808798 -3.384e-21)
(0.0380819 -0.0081773 -1.11173e-21)
(0.0382594 -0.00826521 1.09533e-21)
(0.0384365 -0.00834984 -1.98277e-23)
(0.0386158 -0.00843091 3.11879e-21)
(0.0387943 -0.0085124 -4.17603e-21)
(0.0389756 -0.00858732 0)
(0.0391761 -0.00866636 1.01554e-21)
(0.0393639 -0.00874154 0)
(0.0395641 -0.0088149 0)
(0.0397591 -0.00888814 0)
(0.0399587 -0.0089577 9.45639e-22)
(0.0401536 -0.00903207 -9.47793e-22)
(0.0403567 -0.00909951 -9.34857e-22)
(0.0405705 -0.00916348 -2.72114e-21)
(0.0407885 -0.00922436 1.82129e-21)
(0.0410111 -0.00928632 2.66195e-21)
(0.0412369 -0.00934741 -3.29827e-23)
(0.0414574 -0.00941321 8.42735e-22)
(0.041689 -0.0094652 -2.57715e-21)
(0.0419145 -0.00952017 2.55891e-21)
(0.0421376 -0.00957429 -8.34875e-22)
(0.04236 -0.00961473 8.2918e-22)
(0.042573 -0.00965286 8.17108e-22)
(0.0427812 -0.00969988 -1.5601e-21)
(0.0429894 -0.00972675 2.27757e-21)
(0.0431909 -0.00976979 3.47171e-22)
(0.0433882 -0.00980389 -1.75692e-21)
(0.0435801 -0.00984978 7.2784e-24)
(0.0437693 -0.00989791 3.22524e-22)
(0.0439581 -0.0099272 -1.57327e-22)
(0.0441499 -0.00996427 -2.03696e-24)
(0.0443463 -0.010001 2.1588e-22)
(0.0445471 -0.0100514 -1.41117e-22)
(0.0447528 -0.010109 6.69646e-23)
(0.0449709 -0.0101601 -1.29574e-22)
(0.0451979 -0.0102232 2.50286e-22)
(0.0454359 -0.0102839 2.43836e-22)
(0.0456857 -0.010367 -4.69322e-22)
(0.0459432 -0.0104513 -4.60788e-22)
(0.0462067 -0.0105448 1.36198e-21)
(0.0464739 -0.0106454 -8.71364e-22)
(0.0467432 -0.01076 1.49534e-23)
(0.0470153 -0.0108907 2.13558e-21)
(0.0472894 -0.0110343 8.25365e-22)
(0.0475669 -0.0111918 -8.58056e-22)
(0.0478526 -0.0113708 0)
(0.0481588 -0.0115717 8.12902e-22)
(0.0484825 -0.0118091 8.68532e-22)
(0.0488267 -0.0120802 -4.11716e-23)
(0.0492034 -0.0123992 8.41318e-22)
(0.0496109 -0.012783 -8.74985e-22)
(0.0500429 -0.0132183 2.50514e-21)
(0.0505118 -0.0136717 1.89383e-21)
(0.0510855 -0.0142498 2.67224e-22)
(0.0517357 -0.0148935 0)
(0.0524795 -0.0156285 -4.54862e-21)
(0.0533713 -0.0164431 1.40821e-21)
(0.0544992 -0.0173957 -8.70414e-22)
(0.0557811 -0.0184834 1.36346e-21)
(0.057001 -0.0192843 -1.73216e-21)
(0.0565806 -0.0197687 -2.35529e-21)
(0.0366195 -0.00771665 1.3124e-21)
(0.0367828 -0.00782584 3.82329e-21)
(0.0369496 -0.00793136 -5.05658e-21)
(0.037121 -0.00803201 0)
(0.0372946 -0.0081322 6.06402e-21)
(0.0374738 -0.00822773 -5.06996e-23)
(0.0376568 -0.00832293 -4.76e-21)
(0.0378371 -0.00841488 0)
(0.0380184 -0.00850386 -2.40383e-23)
(0.0382014 -0.00859107 -1.12013e-21)
(0.0383881 -0.00867623 1.10313e-21)
(0.0385763 -0.00875832 -2.17881e-23)
(0.0387649 -0.00883849 0)
(0.0389532 -0.00891668 0)
(0.0391436 -0.00898953 2.06695e-21)
(0.0393372 -0.00906434 -5.20899e-21)
(0.0395334 -0.009134 -1.02846e-21)
(0.0397314 -0.00920451 3.00637e-21)
(0.0399308 -0.00926971 -1.9965e-21)
(0.0401308 -0.00933522 9.68427e-22)
(0.0403335 -0.00939725 -9.54576e-22)
(0.0405374 -0.00945694 1.91774e-21)
(0.0407429 -0.0095145 -1.85901e-21)
(0.0409502 -0.0095704 2.78517e-21)
(0.04116 -0.00962415 -1.84608e-21)
(0.0413719 -0.00967727 -2.68523e-21)
(0.0415839 -0.00972626 1.80341e-21)
(0.041796 -0.00977476 0)
(0.0420086 -0.00982126 0)
(0.0422197 -0.00986654 8.71868e-22)
(0.0424312 -0.00990909 0)
(0.0426459 -0.00994906 8.19981e-22)
(0.0428598 -0.00998856 -7.75824e-22)
(0.043074 -0.0100275 1.14035e-21)
(0.0432899 -0.0100676 -4.85907e-24)
(0.0435082 -0.0101067 3.46241e-22)
(0.0437284 -0.0101465 0)
(0.0439483 -0.0101866 6.41708e-22)
(0.0441705 -0.0102288 -4.6733e-22)
(0.044397 -0.0102748 3.75314e-22)
(0.0446277 -0.0103241 -2.17456e-22)
(0.0448618 -0.0103766 4.37673e-24)
(0.0450982 -0.0104313 -7.1366e-23)
(0.0453379 -0.0104916 6.59422e-23)
(0.0455817 -0.0105554 -5.10355e-22)
(0.0458297 -0.0106257 2.51081e-22)
(0.0460795 -0.0107018 2.46028e-22)
(0.0463303 -0.0107863 -4.65616e-22)
(0.0465824 -0.0108809 -1.39128e-21)
(0.0468363 -0.0109875 7.58378e-24)
(0.0470928 -0.0111074 -1.34624e-21)
(0.0473528 -0.0112433 4.51956e-22)
(0.0476187 -0.0113985 1.33398e-21)
(0.0478944 -0.0115768 -8.89832e-22)
(0.0481827 -0.011781 0)
(0.0484886 -0.0120224 -2.76152e-21)
(0.0488117 -0.0123003 -3.18348e-23)
(0.0491583 -0.0126269 9.32161e-22)
(0.0495304 -0.0130085 1.01604e-21)
(0.0499319 -0.0134495 0)
(0.0503804 -0.0139586 -8.87093e-22)
(0.0508903 -0.014541 -3.01056e-21)
(0.051474 -0.0152211 0)
(0.0521574 -0.0160075 2.03795e-21)
(0.0529928 -0.0169211 -1.5294e-21)
(0.0540848 -0.0179891 2.21437e-21)
(0.055291 -0.0191211 -1.08197e-21)
(0.0559677 -0.0198363 1.77815e-21)
(0.0544617 -0.0203004 1.45872e-21)
(0.0364624 -0.00805086 -6.74047e-21)
(0.0366436 -0.00816475 4.0237e-21)
(0.0368256 -0.00827474 -1.33077e-21)
(0.0370059 -0.00837876 5.15195e-21)
(0.0371873 -0.00847981 -6.4127e-21)
(0.0373702 -0.00857765 -4.99157e-21)
(0.0375566 -0.00867321 6.21705e-21)
(0.0377462 -0.00876573 0)
(0.037938 -0.00885539 -2.49308e-23)
(0.038131 -0.00894237 0)
(0.0383253 -0.009027 -1.17064e-21)
(0.0385208 -0.00910904 1.12957e-21)
(0.0387177 -0.0091883 5.59779e-21)
(0.0389156 -0.00926521 -4.4581e-21)
(0.0391139 -0.00933909 1.07942e-21)
(0.0393139 -0.00941066 3.19381e-21)
(0.0395151 -0.00947963 -1.08371e-21)
(0.0397178 -0.00954613 -1.03245e-21)
(0.0399219 -0.00961003 -3.06975e-21)
(0.0401278 -0.0096709 2.04051e-21)
(0.0403349 -0.00972948 1.00419e-21)
(0.0405425 -0.00978586 -1.94877e-21)
(0.0407513 -0.00983993 9.81342e-22)
(0.0409613 -0.00989186 9.63157e-22)
(0.0411724 -0.00994193 0)
(0.0413844 -0.00999022 -9.38617e-22)
(0.0415966 -0.010037 -8.98236e-22)
(0.0418098 -0.0100818 9.25144e-22)
(0.0420243 -0.0101247 0)
(0.0422396 -0.0101662 -1.78459e-21)
(0.0424568 -0.0102044 8.72167e-22)
(0.0426757 -0.0102409 9.47356e-24)
(0.0428956 -0.0102768 0)
(0.0431172 -0.0103115 -3.83108e-22)
(0.0433407 -0.0103466 1.1022e-21)
(0.0435658 -0.0103822 -7.20196e-22)
(0.0437919 -0.0104197 0)
(0.0440188 -0.0104589 -4.91477e-22)
(0.0442477 -0.0104989 4.81664e-22)
(0.0444793 -0.010541 7.62873e-23)
(0.0447128 -0.0105856 0)
(0.0449477 -0.0106336 1.43425e-22)
(0.045184 -0.0106847 6.90983e-23)
(0.0454221 -0.010739 -6.62374e-23)
(0.0456621 -0.0107974 3.92399e-22)
(0.0459034 -0.0108618 2.58367e-22)
(0.0461456 -0.0109338 -4.9556e-22)
(0.0463887 -0.0110142 4.91683e-22)
(0.0466334 -0.0111045 -4.91295e-22)
(0.0468797 -0.0112066 4.77268e-22)
(0.0471287 -0.0113229 4.67179e-22)
(0.0473815 -0.011456 -9.64052e-22)
(0.0476397 -0.0116086 0)
(0.0479051 -0.0117844 -9.79652e-22)
(0.04818 -0.0119883 -6.38852e-24)
(0.0484661 -0.012227 1.00656e-21)
(0.0487652 -0.0125066 1.0391e-21)
(0.0490808 -0.0128353 -2.09536e-21)
(0.049417 -0.0132218 1.87372e-23)
(0.0497799 -0.0136739 -1.17438e-21)
(0.0501786 -0.0141992 2.45878e-21)
(0.0506297 -0.0148156 1.32163e-21)
(0.051151 -0.0155403 -7.2109e-23)
(0.0517769 -0.0163911 1.28166e-21)
(0.0525706 -0.0174003 1.11971e-21)
(0.0536096 -0.0185545 4.3764e-21)
(0.0545697 -0.0196961 0)
(0.0544011 -0.0202852 1.2954e-21)
(0.0515411 -0.0207346 -1.23926e-21)
(0.0362662 -0.00839962 0)
(0.0364654 -0.00851605 1.3831e-21)
(0.0366666 -0.00862901 6.83046e-21)
(0.0368649 -0.00873632 -5.43686e-21)
(0.037062 -0.00883956 -3.97649e-21)
(0.0372588 -0.00893961 6.58668e-21)
(0.0374563 -0.00903648 -1.27398e-21)
(0.0376552 -0.00913006 1.27881e-21)
(0.0378557 -0.00922033 1.233e-21)
(0.0380576 -0.00930742 4.86693e-21)
(0.0382607 -0.00939145 -4.87504e-21)
(0.038465 -0.00947245 -4.70849e-21)
(0.0386707 -0.00955038 1.22752e-21)
(0.0388777 -0.00962527 4.59085e-21)
(0.0390859 -0.00969722 -3.41486e-21)
(0.0392951 -0.00976625 1.12024e-21)
(0.0395051 -0.00983253 -1.10242e-21)
(0.0397159 -0.00989598 -1.0851e-21)
(0.0399275 -0.00995669 3.1562e-21)
(0.04014 -0.0100147 -1.05587e-21)
(0.0403533 -0.01007 -1.02231e-21)
(0.0405676 -0.0101228 0)
(0.0407828 -0.0101732 -1.99405e-21)
(0.0409989 -0.0102212 1.01146e-21)
(0.0412157 -0.0102671 1.92709e-21)
(0.0414332 -0.010311 1.88244e-21)
(0.0416514 -0.0103529 -3.8139e-21)
(0.0418705 -0.0103927 1.8748e-21)
(0.0420906 -0.0104305 0)
(0.0423108 -0.0104668 1.83428e-21)
(0.0425328 -0.0105006 -4.58515e-24)
(0.0427558 -0.0105332 -1.70453e-21)
(0.0429796 -0.0105654 8.09143e-22)
(0.0432045 -0.0105974 -1.96777e-21)
(0.0434305 -0.0106301 3.84163e-22)
(0.0436576 -0.0106636 0)
(0.0438858 -0.0106983 0)
(0.0441152 -0.010734 -1.69688e-22)
(0.0443459 -0.0107707 -1.61973e-22)
(0.0445781 -0.010809 -7.89691e-23)
(0.0448113 -0.0108495 2.38553e-24)
(0.0450455 -0.0108926 -7.30985e-23)
(0.0452804 -0.0109384 0)
(0.045516 -0.0109875 1.75776e-24)
(0.0457523 -0.0110413 0)
(0.0459892 -0.0111006 -2.59637e-22)
(0.0462268 -0.0111667 5.69587e-25)
(0.0464654 -0.0112407 7.67853e-22)
(0.0467052 -0.0113244 0)
(0.0469466 -0.0114199 5.01473e-22)
(0.0471901 -0.0115292 -4.9367e-22)
(0.0474364 -0.0116551 9.79509e-22)
(0.0476861 -0.0118008 0)
(0.0479398 -0.0119703 3.06549e-21)
(0.0481985 -0.0121685 -5.52851e-24)
(0.0484631 -0.0124018 -1.03622e-21)
(0.0487351 -0.0126769 -1.07384e-21)
(0.0490171 -0.0130024 0)
(0.0493129 -0.013388 0)
(0.049628 -0.0138442 1.20011e-21)
(0.0499709 -0.0143835 -2.51551e-21)
(0.0503548 -0.0150218 -2.63989e-21)
(0.0508022 -0.0157814 0)
(0.0513608 -0.0166908 3.27714e-21)
(0.0521031 -0.017784 0)
(0.0530385 -0.0189989 -4.8205e-21)
(0.0535144 -0.0200616 1.66932e-21)
(0.0521083 -0.0204201 1.67193e-21)
(0.0478822 -0.0208242 1.92865e-21)
(0.0360713 -0.00876812 0)
(0.0362767 -0.00888452 0)
(0.0364882 -0.00899783 1.45208e-21)
(0.0367 -0.00910583 -5.61487e-21)
(0.036912 -0.00920992 6.98344e-21)
(0.0371248 -0.0093109 -1.35038e-21)
(0.0373378 -0.00940866 0)
(0.037551 -0.00950303 -1.30502e-21)
(0.0377645 -0.00959385 0)
(0.0379784 -0.00968108 -2.52794e-21)
(0.0381929 -0.00976474 1.32088e-23)
(0.0384081 -0.00984491 2.47784e-21)
(0.038624 -0.00992164 0)
(0.0388407 -0.009995 -2.35955e-21)
(0.0390582 -0.0100651 7.01582e-21)
(0.0392764 -0.010132 -4.58255e-21)
(0.0394953 -0.0101958 5.64822e-21)
(0.0397147 -0.0102566 -1.14017e-21)
(0.0399346 -0.0103144 1.10308e-21)
(0.0401549 -0.0103694 -1.07117e-21)
(0.0403758 -0.0104216 -1.03557e-21)
(0.0405972 -0.0104711 3.16401e-21)
(0.0408191 -0.0105181 2.06091e-21)
(0.0410416 -0.0105626 0)
(0.0412645 -0.0106049 -1.98351e-21)
(0.0414878 -0.010645 -9.42424e-22)
(0.0417117 -0.0106831 2.94174e-21)
(0.0419359 -0.0107192 -9.58458e-22)
(0.0421605 -0.0107536 1.88448e-21)
(0.0423848 -0.0107866 -2.83083e-21)
(0.0426108 -0.0108172 9.04977e-22)
(0.0428374 -0.0108468 -4.34814e-22)
(0.0430645 -0.0108758 0)
(0.0432924 -0.0109045 3.98877e-22)
(0.0435211 -0.0109333 3.83918e-22)
(0.0437506 -0.0109623 0)
(0.043981 -0.0109917 -3.58662e-22)
(0.0442121 -0.0110218 5.12952e-22)
(0.0444439 -0.0110528 -3.35497e-22)
(0.0446763 -0.0110852 1.60373e-22)
(0.0449092 -0.0111195 2.45175e-24)
(0.0451424 -0.0111561 1.12801e-22)
(0.0453758 -0.0111956 -3.67353e-23)
(0.0456096 -0.0112386 -1.413e-22)
(0.0458439 -0.0112861 -1.92322e-24)
(0.0460789 -0.0113389 -8.14042e-22)
(0.0463147 -0.0113981 0)
(0.0465515 -0.0114652 -5.20613e-22)
(0.0467894 -0.0115418 7.77418e-25)
(0.0470285 -0.0116296 5.13786e-22)
(0.0472686 -0.0117307 0)
(0.0475094 -0.0118478 5.25955e-22)
(0.0477508 -0.011984 -5.18187e-22)
(0.0479923 -0.0121433 -1.05206e-21)
(0.0482339 -0.0123307 0)
(0.0484758 -0.0125527 2.27318e-21)
(0.0487188 -0.012817 -2.36296e-21)
(0.0489647 -0.0131327 2.47428e-21)
(0.0492164 -0.0135106 7.84193e-23)
(0.0494778 -0.013963 0)
(0.0497555 -0.0145048 1.52482e-21)
(0.0500636 -0.0151562 -1.50329e-21)
(0.0504335 -0.0159462 -1.89176e-21)
(0.0509269 -0.01691 -3.36969e-21)
(0.0516091 -0.0180694 5.97015e-21)
(0.0523239 -0.0192777 -3.96525e-21)
(0.0519595 -0.0201322 1.99496e-21)
(0.0490069 -0.0201963 -2.36242e-21)
(0.0436365 -0.0206314 -5.73264e-21)
(0.0359048 -0.0091632 -6.16849e-21)
(0.0361096 -0.0092789 7.17862e-23)
(0.0363226 -0.00939124 6.06264e-21)
(0.0365384 -0.0094981 0)
(0.0367571 -0.00960112 -1.43191e-21)
(0.0369789 -0.00970117 0)
(0.037203 -0.00979817 2.77383e-21)
(0.0374286 -0.00989189 -3.69554e-23)
(0.0376551 -0.00998211 -4.07073e-21)
(0.0378821 -0.0100687 1.33437e-21)
(0.0381094 -0.0101516 1.28783e-21)
(0.038337 -0.0102307 1.28681e-21)
(0.0385648 -0.0103063 0)
(0.0387928 -0.0103782 0)
(0.039021 -0.0104465 -1.20132e-21)
(0.0392494 -0.0105114 -1.18102e-21)
(0.039478 -0.0105729 2.31913e-21)
(0.0397067 -0.0106311 -2.32053e-21)
(0.0399356 -0.0106861 -2.26169e-21)
(0.0401647 -0.0107379 2.2048e-21)
(0.0403938 -0.0107868 -4.36678e-21)
(0.0406231 -0.0108328 5.37936e-23)
(0.0408524 -0.0108761 2.15469e-21)
(0.0410819 -0.0109167 1.05019e-21)
(0.0413115 -0.0109549 2.0391e-21)
(0.0415412 -0.0109908 -2.0525e-21)
(0.0417709 -0.0110244 -1.98249e-21)
(0.0420007 -0.0110561 1.99921e-21)
(0.0422304 -0.0110858 0)
(0.0424602 -0.0111135 0)
(0.0426909 -0.011139 -2.27924e-21)
(0.0429217 -0.0111634 1.58704e-23)
(0.0431525 -0.011187 8.55976e-22)
(0.0433835 -0.0112102 8.06532e-22)
(0.0436148 -0.0112333 -7.92313e-22)
(0.0438464 -0.0112566 0)
(0.0440783 -0.0112803 3.62486e-22)
(0.0443104 -0.0113048 5.22761e-22)
(0.0445428 -0.0113304 -3.41307e-22)
(0.0447754 -0.0113574 3.98125e-25)
(0.0450083 -0.0113864 2.4416e-23)
(0.0452416 -0.0114176 -1.14961e-22)
(0.0454754 -0.0114517 -7.45873e-23)
(0.0457099 -0.0114892 -1.44459e-22)
(0.0459453 -0.0115308 7.06742e-22)
(0.0461816 -0.0115775 -1.8964e-24)
(0.0464189 -0.0116301 0)
(0.0466571 -0.0116899 5.39617e-22)
(0.0468957 -0.0117581 -1.6018e-21)
(0.0471342 -0.0118364 1.06208e-21)
(0.0473717 -0.0119267 5.3892e-22)
(0.0476073 -0.0120315 9.28253e-24)
(0.04784 -0.0121539 5.62124e-22)
(0.0480687 -0.0122981 4.52872e-23)
(0.0482927 -0.0124693 -1.12575e-21)
(0.0485113 -0.0126741 1.21065e-21)
(0.0487246 -0.0129206 1.29431e-21)
(0.048933 -0.0132186 -2.64787e-21)
(0.0491371 -0.0135795 -1.2881e-23)
(0.0493389 -0.0140176 -1.56466e-21)
(0.0495444 -0.014551 1.54565e-21)
(0.0497727 -0.0152057 -1.67114e-21)
(0.0500681 -0.0160177 3.59353e-21)
(0.0505013 -0.0170243 2.12057e-21)
(0.051084 -0.0182087 -3.94386e-21)
(0.0513481 -0.0193023 2.65121e-21)
(0.0497132 -0.0198065 7.53896e-21)
(0.0450871 -0.0195905 2.22474e-21)
(0.0390543 -0.0202086 0)
(0.0357605 -0.00958547 0)
(0.0359691 -0.00970127 -1.60991e-21)
(0.0361847 -0.00981295 3.30401e-23)
(0.0364026 -0.00991847 0)
(0.0366238 -0.0100197 0)
(0.0368491 -0.0101177 -1.49364e-21)
(0.0370781 -0.0102125 4.35033e-21)
(0.0373102 -0.010304 -5.70102e-21)
(0.0375446 -0.0103919 2.79333e-21)
(0.0377808 -0.0104762 -1.36126e-21)
(0.0380181 -0.0105568 0)
(0.0382563 -0.0106337 -1.31245e-21)
(0.038495 -0.0107068 1.30865e-21)
(0.038734 -0.0107762 0)
(0.0389732 -0.0108419 0)
(0.0392123 -0.0109039 -1.20049e-21)
(0.0394514 -0.0109623 4.32071e-23)
(0.0396902 -0.0110172 2.39578e-21)
(0.0399289 -0.0110687 2.29774e-21)
(0.0401673 -0.0111168 -2.31522e-21)
(0.0404054 -0.0111618 -1.12128e-21)
(0.0406432 -0.0112036 -4.41266e-21)
(0.0408807 -0.0112425 2.29499e-23)
(0.0411178 -0.0112787 1.05656e-21)
(0.0413546 -0.0113121 -2.13729e-21)
(0.041591 -0.0113432 1.01611e-21)
(0.041827 -0.0113718 -2.07641e-21)
(0.0420629 -0.0113983 0)
(0.0422978 -0.0114228 0)
(0.0425331 -0.0114449 0)
(0.0427682 -0.0114651 4.63613e-22)
(0.0430028 -0.0114844 8.82282e-22)
(0.0432371 -0.011503 -8.68755e-22)
(0.0434711 -0.0115213 -8.18329e-22)
(0.043705 -0.0115395 8.04147e-22)
(0.0439389 -0.0115579 0)
(0.044173 -0.0115767 -3.65355e-22)
(0.0444073 -0.0115962 1.81714e-22)
(0.0446419 -0.0116168 0)
(0.0448771 -0.0116386 -1.65686e-22)
(0.0451128 -0.0116622 2.99357e-23)
(0.0453494 -0.011688 -1.95985e-23)
(0.0455869 -0.0117163 7.55065e-23)
(0.0458255 -0.0117478 0)
(0.0460651 -0.0117829 2.87364e-22)
(0.0463056 -0.0118224 -2.82902e-22)
(0.0465466 -0.0118671 0)
(0.0467876 -0.0119178 3.59517e-24)
(0.0470278 -0.0119755 2.96439e-25)
(0.0472661 -0.0120418 -5.41355e-22)
(0.0475012 -0.0121183 0)
(0.0477318 -0.0122074 3.82888e-24)
(0.0479564 -0.0123122 5.58252e-22)
(0.0481732 -0.0124367 1.76133e-21)
(0.0483808 -0.0125861 3.38562e-23)
(0.0485776 -0.012767 -1.23271e-21)
(0.0487621 -0.0129877 0)
(0.0489322 -0.0132581 0)
(0.049086 -0.0135908 -1.51792e-21)
(0.0492237 -0.0140018 0)
(0.0493539 -0.0145142 0)
(0.0495066 -0.0151612 -4.68193e-23)
(0.0497402 -0.0159844 1.98273e-21)
(0.0501113 -0.0170092 4.749e-21)
(0.0504842 -0.0181412 -4.92673e-21)
(0.049921 -0.0189705 4.66431e-22)
(0.0466082 -0.0190123 -2.43827e-21)
(0.0404554 -0.018634 -2.85335e-21)
(0.0344387 -0.0196275 0)
(0.0356174 -0.0100322 0)
(0.0358374 -0.0101491 1.64221e-21)
(0.0360626 -0.0102611 -4.8436e-21)
(0.0362882 -0.0103662 1.60025e-21)
(0.0365157 -0.0104661 0)
(0.0367462 -0.0105623 4.57656e-21)
(0.0369801 -0.0106547 -7.52693e-21)
(0.0372169 -0.0107433 4.34159e-23)
(0.0374565 -0.0108281 7.24272e-21)
(0.0376984 -0.010909 -1.43396e-21)
(0.0379421 -0.010986 1.40675e-21)
(0.0381874 -0.0110591 1.37954e-21)
(0.0384338 -0.0111283 -3.99865e-21)
(0.0386811 -0.0111937 5.27316e-21)
(0.038929 -0.0112553 -2.61001e-21)
(0.0391771 -0.0113132 1.25447e-21)
(0.0394252 -0.0113673 -4.98427e-21)
(0.0396731 -0.0114178 1.24016e-21)
(0.0399208 -0.0114648 -1.18439e-21)
(0.040168 -0.0115083 1.23177e-21)
(0.0404146 -0.0115485 4.67686e-23)
(0.0406607 -0.0115855 6.83454e-21)
(0.040906 -0.0116195 1.06843e-21)
(0.0411507 -0.0116506 -4.69838e-23)
(0.0413947 -0.011679 -3.27828e-21)
(0.0416379 -0.0117048 1.06358e-21)
(0.0418803 -0.0117282 -2.07876e-21)
(0.0421221 -0.0117493 3.13335e-21)
(0.0423626 -0.0117684 0)
(0.0426033 -0.0117849 9.69775e-22)
(0.0428432 -0.0118 -9.52641e-22)
(0.0430824 -0.0118141 -1.17253e-24)
(0.0433211 -0.0118276 4.35367e-22)
(0.0435594 -0.0118408 4.18611e-22)
(0.0437976 -0.0118538 -1.19963e-21)
(0.0440358 -0.011867 7.83537e-22)
(0.0442744 -0.0118806 -5.56038e-22)
(0.0445133 -0.0118949 7.19791e-22)
(0.0447529 -0.0119102 -3.505e-22)
(0.0449932 -0.0119268 8.38494e-23)
(0.0452345 -0.0119451 0)
(0.0454768 -0.0119653 -7.82366e-23)
(0.0457201 -0.0119879 7.69989e-23)
(0.0459643 -0.0120131 1.48559e-22)
(0.0462094 -0.0120412 -4.37033e-22)
(0.0464547 -0.0120728 2.85622e-22)
(0.0466999 -0.0121084 2.81263e-22)
(0.046944 -0.0121484 0)
(0.047186 -0.012194 1.10563e-21)
(0.0474247 -0.012246 -1.10464e-21)
(0.0476585 -0.0123062 5.58589e-22)
(0.0478858 -0.0123765 -5.43902e-22)
(0.0481045 -0.0124599 -5.49712e-22)
(0.0483124 -0.0125599 -1.16671e-21)
(0.0485069 -0.0126816 -1.22128e-21)
(0.0486849 -0.0128313 0)
(0.0488423 -0.0130168 1.36627e-21)
(0.0489742 -0.0132482 0)
(0.049076 -0.0135391 -9.93182e-23)
(0.0491489 -0.0139091 1.70544e-21)
(0.0492103 -0.0143877 -1.78536e-21)
(0.0493055 -0.0150148 -2.01131e-21)
(0.0494947 -0.0158299 2.33602e-21)
(0.049764 -0.0168205 2.24996e-22)
(0.0496815 -0.0177744 3.57447e-23)
(0.0477855 -0.0181652 -8.80612e-21)
(0.0425537 -0.017727 -3.25157e-21)
(0.0353202 -0.0173963 -3.43945e-21)
(0.0300132 -0.0189793 3.46759e-21)
(0.0354622 -0.010502 0)
(0.0356975 -0.0106205 0)
(0.0359375 -0.0107336 -3.36437e-21)
(0.0361767 -0.0108388 4.98563e-21)
(0.0364163 -0.0109384 1.64293e-21)
(0.0366578 -0.0110334 0)
(0.0369012 -0.011124 0)
(0.0371466 -0.0112103 -1.54609e-21)
(0.0373938 -0.0112921 2.98192e-21)
(0.0376427 -0.0113695 -2.5424e-23)
(0.0378931 -0.0114426 -7.20843e-21)
(0.0381449 -0.0115114 1.44932e-21)
(0.038398 -0.011576 -1.35438e-21)
(0.0386519 -0.0116365 2.745e-21)
(0.0389066 -0.0116931 -1.34129e-21)
(0.0391617 -0.0117457 0)
(0.039417 -0.0117945 0)
(0.0396722 -0.0118395 2.3954e-23)
(0.0399272 -0.0118809 3.73421e-21)
(0.0401817 -0.0119188 -1.20655e-21)
(0.0404357 -0.0119533 1.19365e-21)
(0.040689 -0.0119846 -1.16391e-21)
(0.0409415 -0.0120128 -1.11998e-21)
(0.0411931 -0.0120381 1.15027e-21)
(0.0414438 -0.0120607 1.10582e-21)
(0.0416936 -0.0120806 0)
(0.0419424 -0.0120981 0)
(0.0421901 -0.0121134 -1.58432e-21)
(0.0424368 -0.0121264 0)
(0.0426834 -0.0121371 -9.79718e-22)
(0.042929 -0.0121466 9.62697e-22)
(0.0431739 -0.0121553 4.56835e-22)
(0.0434182 -0.0121634 -4.39239e-22)
(0.0436622 -0.0121713 -8.44419e-22)
(0.0439063 -0.0121792 4.06416e-22)
(0.0441505 -0.0121873 3.8682e-22)
(0.044395 -0.0121958 -3.79843e-22)
(0.0446402 -0.0122052 0)
(0.044886 -0.0122155 0)
(0.0451326 -0.012227 -8.42217e-23)
(0.0453802 -0.0122398 0)
(0.0456287 -0.0122543 0)
(0.0458779 -0.0122704 2.30027e-22)
(0.0461278 -0.0122885 -3.0036e-22)
(0.0463781 -0.0123086 1.45888e-22)
(0.0466282 -0.012331 -2.88363e-22)
(0.0468775 -0.012356 0)
(0.0471252 -0.0123841 -8.38733e-22)
(0.0473702 -0.0124157 -4.09694e-24)
(0.0476112 -0.0124518 0)
(0.0478464 -0.0124934 1.11369e-21)
(0.048074 -0.0125422 -1.51018e-23)
(0.0482912 -0.0126006 1.14886e-21)
(0.0484949 -0.0126715 5.91381e-22)
(0.0486812 -0.0127593 1.28388e-21)
(0.0488444 -0.0128693 -1.26987e-21)
(0.0489775 -0.0130089 -1.39141e-21)
(0.0490723 -0.0131882 0)
(0.0491244 -0.013423 1.71616e-21)
(0.0491422 -0.013738 6.68688e-23)
(0.0491586 -0.0141696 0)
(0.0492282 -0.0147594 0)
(0.0493729 -0.0155277 -2.39978e-21)
(0.0494029 -0.016386 0)
(0.0484254 -0.0169854 0)
(0.0446719 -0.0167902 3.16584e-21)
(0.0375784 -0.0159864 3.3222e-21)
(0.0299389 -0.0159717 3.9352e-21)
(0.0258834 -0.0183558 0)
(0.0352934 -0.0109964 0)
(0.0355445 -0.0111163 0)
(0.0358007 -0.0112302 0)
(0.0360557 -0.0113357 1.74129e-21)
(0.0363109 -0.011435 1.68121e-21)
(0.0365672 -0.0115292 -4.90798e-23)
(0.0368246 -0.0116185 -3.26833e-21)
(0.0370831 -0.0117028 1.57542e-21)
(0.0373425 -0.0117821 -1.5664e-21)
(0.0376025 -0.0118565 -3.04493e-21)
(0.0378632 -0.0119259 0)
(0.0381245 -0.0119905 0)
(0.0383863 -0.0120505 -2.54999e-23)
(0.0386486 -0.0121061 -4.23765e-21)
(0.0389111 -0.0121572 5.46463e-21)
(0.0391737 -0.0122042 -5.25032e-23)
(0.0394363 -0.012247 -2.66281e-21)
(0.0396987 -0.0122859 -1.28645e-21)
(0.0399606 -0.0123211 9.22489e-24)
(0.0402221 -0.0123525 0)
(0.0404828 -0.0123806 -2.43572e-21)
(0.0407428 -0.0124053 0)
(0.0410018 -0.0124269 -2.34551e-21)
(0.0412599 -0.0124456 3.42758e-21)
(0.041517 -0.0124615 -3.42221e-21)
(0.0417731 -0.0124748 -1.11262e-21)
(0.0420282 -0.0124857 1.62756e-21)
(0.0422818 -0.0124946 -1.61476e-21)
(0.042535 -0.0125009 1.05324e-21)
(0.0427875 -0.0125055 0)
(0.0430391 -0.012509 9.47654e-22)
(0.0432899 -0.012512 4.38246e-22)
(0.0435402 -0.0125146 -8.95019e-22)
(0.0437903 -0.012517 8.49564e-22)
(0.0440404 -0.0125195 -4.04097e-22)
(0.0442906 -0.0125222 3.97479e-22)
(0.0445412 -0.0125255 1.89514e-22)
(0.0447923 -0.0125293 -1.81335e-22)
(0.045044 -0.012534 -8.66019e-23)
(0.0452963 -0.0125396 2.56344e-22)
(0.0455494 -0.0125463 2.03959e-23)
(0.0458032 -0.012554 0)
(0.0460577 -0.0125628 -7.75757e-23)
(0.0463127 -0.0125729 1.51121e-22)
(0.046568 -0.0125842 -1.47603e-22)
(0.0468231 -0.0125968 0)
(0.0470777 -0.0126107 0)
(0.0473309 -0.0126262 -2.78933e-22)
(0.0475816 -0.0126433 5.52261e-22)
(0.0478285 -0.0126623 1.10423e-21)
(0.0480697 -0.012684 -2.22365e-21)
(0.0483027 -0.0127092 5.6101e-22)
(0.0485243 -0.0127393 -5.66388e-22)
(0.0487301 -0.0127764 -6.00321e-22)
(0.0489138 -0.0128236 1.28288e-21)
(0.0490669 -0.0128848 -1.2699e-21)
(0.0491793 -0.0129668 0)
(0.0492425 -0.0130806 1.49345e-21)
(0.049259 -0.0132459 1.13622e-22)
(0.0492527 -0.0134935 -1.74163e-21)
(0.0492697 -0.0138628 0)
(0.0493424 -0.0143834 0)
(0.0493713 -0.0150269 0)
(0.0488364 -0.0155938 -6.07596e-21)
(0.0463418 -0.0156329 -3.61234e-21)
(0.0403834 -0.0148124 -3.77956e-21)
(0.031841 -0.0138776 7.8216e-21)
(0.0245451 -0.0144678 -6.46782e-24)
(0.0219599 -0.0178523 -4.32929e-21)
(0.0351161 -0.011519 0)
(0.0353824 -0.0116394 3.7187e-21)
(0.0356543 -0.0117535 -4.61473e-21)
(0.0359252 -0.0118587 2.68584e-21)
(0.0361963 -0.0119571 -5.30282e-21)
(0.0364685 -0.0120501 -1.73053e-21)
(0.0367417 -0.0121377 -1.69252e-21)
(0.0370155 -0.0122199 0)
(0.0372897 -0.0122966 3.21414e-21)
(0.037564 -0.0123678 3.0963e-21)
(0.0378382 -0.0124336 -3.10464e-21)
(0.0381123 -0.0124941 1.51352e-21)
(0.0383861 -0.0125496 -1.45315e-21)
(0.0386596 -0.0126001 1.4901e-21)
(0.0389327 -0.0126458 5.65613e-21)
(0.0392053 -0.0126869 -5.61239e-23)
(0.0394772 -0.0127236 -5.60918e-23)
(0.0397484 -0.0127561 -2.67621e-21)
(0.0400187 -0.0127846 -1.29266e-21)
(0.040288 -0.0128092 -2.51313e-21)
(0.0405563 -0.0128302 2.5131e-21)
(0.0408236 -0.0128478 0)
(0.0410896 -0.0128623 -2.67302e-24)
(0.0413545 -0.0128737 0)
(0.0416181 -0.0128824 1.15106e-21)
(0.0418805 -0.0128886 1.13062e-21)
(0.0421417 -0.0128924 -5.55567e-22)
(0.0424013 -0.0128942 0)
(0.0426605 -0.0128934 -5.21824e-22)
(0.0429188 -0.0128914 -9.91257e-22)
(0.0431759 -0.0128885 9.74665e-22)
(0.0434322 -0.0128852 -4.63007e-22)
(0.043688 -0.0128816 8.77306e-22)
(0.0439434 -0.0128779 -1.71174e-21)
(0.0441986 -0.0128743 4.14517e-22)
(0.0444539 -0.012871 0)
(0.0447095 -0.0128681 1.88235e-22)
(0.0449654 -0.0128657 1.9123e-24)
(0.0452218 -0.0128641 -2.62213e-22)
(0.0454788 -0.0128631 2.13276e-22)
(0.0457367 -0.012863 -4.164e-23)
(0.0459954 -0.0128636 1.18148e-22)
(0.046255 -0.0128651 -7.76148e-23)
(0.0465156 -0.0128672 0)
(0.046777 -0.0128698 0)
(0.0470391 -0.0128728 0)
(0.0473015 -0.012876 -2.76589e-22)
(0.0475634 -0.012879 -2.72203e-22)
(0.0478239 -0.0128815 0)
(0.0480815 -0.0128832 -5.38253e-22)
(0.0483341 -0.012884 -5.23956e-22)
(0.0485788 -0.0128838 -5.41313e-22)
(0.0488115 -0.0128828 0)
(0.0490259 -0.0128816 0)
(0.0492129 -0.0128813 1.2576e-21)
(0.0493613 -0.0128844 -1.24583e-21)
(0.0494613 -0.0128977 0)
(0.0495121 -0.0129352 -1.51967e-21)
(0.0495326 -0.0130215 1.66921e-21)
(0.0495626 -0.0131902 1.79862e-21)
(0.0496345 -0.0134709 -2.22101e-21)
(0.049683 -0.0138567 2.20918e-21)
(0.0493555 -0.0142353 0)
(0.047666 -0.0142943 3.06589e-21)
(0.0430084 -0.0136066 -1.51325e-22)
(0.0348805 -0.0122834 7.59324e-21)
(0.0256031 -0.0115307 8.76343e-21)
(0.0193296 -0.0129742 -9.77932e-21)
(0.0182126 -0.0174124 4.72464e-21)
(0.0349362 -0.0120742 1.00307e-21)
(0.0352176 -0.0121945 0)
(0.0355049 -0.0123078 9.42428e-22)
(0.0357913 -0.0124117 -4.61151e-21)
(0.0360779 -0.0125084 8.15903e-21)
(0.0363657 -0.0125992 -1.82022e-21)
(0.0366545 -0.0126843 1.72495e-21)
(0.0369439 -0.0127635 -3.36641e-21)
(0.0372335 -0.0128367 1.70057e-21)
(0.0375229 -0.0129041 1.61186e-21)
(0.0378119 -0.0129656 1.59341e-21)
(0.0381003 -0.0130215 -4.60977e-21)
(0.038388 -0.0130718 1.53816e-21)
(0.0386747 -0.0131168 -4.41756e-21)
(0.0389604 -0.0131567 -1.38166e-21)
(0.0392449 -0.0131916 5.99877e-23)
(0.0395281 -0.0132218 2.79909e-21)
(0.0398099 -0.0132474 0)
(0.0400902 -0.0132688 0)
(0.040369 -0.0132862 1.29811e-21)
(0.0406462 -0.0132998 1.26764e-21)
(0.0409218 -0.0133098 2.45711e-21)
(0.0411957 -0.0133166 -1.24805e-21)
(0.041468 -0.0133204 -2.35772e-21)
(0.0417386 -0.0133213 2.36901e-21)
(0.0420077 -0.0133198 -5.72563e-22)
(0.042275 -0.013316 -5.61593e-22)
(0.0425409 -0.0133098 0)
(0.0428059 -0.0133016 5.25057e-22)
(0.0430694 -0.0132923 9.92728e-22)
(0.0433316 -0.0132825 -2.40562e-23)
(0.0435929 -0.0132722 -9.36901e-22)
(0.0438533 -0.0132617 4.41548e-22)
(0.0441133 -0.0132512 0)
(0.044373 -0.013241 -2.03212e-22)
(0.0446326 -0.013231 1.95078e-22)
(0.0448925 -0.0132216 -1.89911e-22)
(0.0451527 -0.0132127 3.6299e-22)
(0.0454136 -0.0132046 0)
(0.0456755 -0.0131971 4.17948e-23)
(0.0459385 -0.0131904 -4.07048e-23)
(0.0462029 -0.0131844 5.79429e-23)
(0.046469 -0.0131789 -2.28773e-22)
(0.0467369 -0.0131737 4.44455e-22)
(0.0470068 -0.0131684 -2.90708e-22)
(0.0472785 -0.0131627 -2.80891e-22)
(0.0475519 -0.0131558 2.85667e-22)
(0.0478263 -0.013147 -5.33232e-22)
(0.0481009 -0.0131355 5.35468e-22)
(0.0483744 -0.0131203 1.33668e-21)
(0.0486444 -0.0131002 1.44095e-23)
(0.0489073 -0.0130738 5.48114e-22)
(0.0491575 -0.0130395 0)
(0.0493862 -0.0129957 0)
(0.0495826 -0.0129414 1.20408e-21)
(0.0497371 -0.012879 -1.88473e-21)
(0.0498495 -0.0128174 1.27072e-21)
(0.0499379 -0.0127748 0)
(0.0500397 -0.0127775 -1.52085e-21)
(0.0501844 -0.0128489 -3.73735e-21)
(0.0503165 -0.0129851 2.13298e-21)
(0.0501486 -0.0131104 3.40695e-22)
(0.0489302 -0.0130108 -2.53915e-21)
(0.0452898 -0.0123299 -2.57317e-22)
(0.0381095 -0.0108991 7.1644e-21)
(0.0283221 -0.00933929 -8.26462e-21)
(0.0191674 -0.00910014 -4.93044e-21)
(0.0143601 -0.011577 0)
(0.0145705 -0.0169991 0)
(0.034759 -0.0126672 -1.02267e-21)
(0.0350558 -0.0127865 -5.02818e-21)
(0.0353588 -0.0128982 3.97738e-21)
(0.0356609 -0.0129999 0)
(0.0359631 -0.0130939 9.33714e-22)
(0.0362663 -0.0131815 3.64442e-21)
(0.0365706 -0.0132628 -2.71876e-21)
(0.0368753 -0.0133379 4.35382e-21)
(0.0371801 -0.0134066 -3.45423e-21)
(0.0374845 -0.013469 0)
(0.0377883 -0.0135252 -8.03458e-22)
(0.0380911 -0.0135753 0)
(0.0383928 -0.0136195 -1.52902e-21)
(0.0386932 -0.013658 4.58159e-21)
(0.0389921 -0.013691 0)
(0.0392892 -0.0137188 0)
(0.0395845 -0.0137416 0)
(0.0398778 -0.0137596 2.04186e-21)
(0.040169 -0.0137731 -2.7346e-21)
(0.0404581 -0.0137824 -1.31981e-21)
(0.0407449 -0.0137879 0)
(0.0410296 -0.0137896 0)
(0.041312 -0.0137881 0)
(0.0415922 -0.0137835 2.99347e-21)
(0.0418703 -0.0137761 -3.57073e-21)
(0.0421463 -0.0137662 1.75785e-21)
(0.0424199 -0.0137541 1.13584e-21)
(0.0426922 -0.0137394 -1.07903e-21)
(0.0429628 -0.0137233 1.06144e-21)
(0.0432316 -0.0137063 -4.99223e-22)
(0.0434989 -0.0136888 9.50187e-22)
(0.0437649 -0.0136711 -4.76674e-22)
(0.0440301 -0.0136534 -8.84102e-22)
(0.0442947 -0.0136359 -4.21008e-22)
(0.0445589 -0.0136188 2.04857e-22)
(0.0448232 -0.0136022 -1.96719e-22)
(0.0450878 -0.0135863 0)
(0.0453531 -0.0135711 -3.34368e-24)
(0.0456194 -0.0135569 -8.58274e-23)
(0.0458871 -0.0135435 1.04425e-24)
(0.0461566 -0.0135308 4.02734e-23)
(0.0464283 -0.0135189 -9.68876e-23)