/*--------------------------------*- C++ -*----------------------------------*\
| =========                 |                                                 |
| \\      /  F ield         | OpenFOAM: The Open Source CFD Toolbox           |
|  \\    /   O peration     | Version:  2312                                  |
|   \\  /    A nd           | Website:  www.openfoam.com                      |
|    \\/     M anipulation  |                                                 |
\*---------------------------------------------------------------------------*/
FoamFile
{
    version     2.0;
    format      ascii;
    arch        "LSB;label=32;scalar=64";
    class       volScalarField;
    location    "900";
    object      k;
}
// * * * * * * * * * * * * * * * * * * * * * * * * * * * * * * * * * * * * * //

dimensions      [0 2 -2 0 0 0 0];

internalField   nonuniform List<scalar> 
76025
(
4.71416e-06
4.71555e-06
4.71607e-06
4.71783e-06
4.71634e-06
4.71679e-06
4.71615e-06
4.718e-06
4.71847e-06
4.72004e-06
4.72253e-06
4.72278e-06
4.72149e-06
4.72087e-06
4.72642e-06
4.73194e-06
4.73903e-06
4.74449e-06
4.7511e-06
4.75795e-06
4.76481e-06
4.77172e-06
4.77931e-06
4.78725e-06
4.79726e-06
4.80415e-06
4.8144e-06
4.82164e-06
4.83114e-06
4.83964e-06
4.85002e-06
4.85608e-06
4.86632e-06
4.87453e-06
4.8841e-06
4.89241e-06
4.90069e-06
4.91022e-06
4.91835e-06
4.92668e-06
4.9349e-06
4.94291e-06
4.95194e-06
4.95988e-06
4.96876e-06
4.97796e-06
4.98912e-06
5.00156e-06
5.01578e-06
5.03226e-06
5.05217e-06
5.0758e-06
5.10339e-06
5.1352e-06
5.17716e-06
5.22062e-06
5.27267e-06
5.33167e-06
5.39788e-06
5.47516e-06
5.5616e-06
5.67579e-06
5.80653e-06
5.97726e-06
6.14469e-06
6.34475e-06
6.62739e-06
6.82567e-06
7.24377e-06
4.7459e-06
4.74888e-06
4.75131e-06
4.75408e-06
4.75628e-06
4.75855e-06
4.76008e-06
4.76229e-06
4.76414e-06
4.76582e-06
4.76819e-06
4.77007e-06
4.77271e-06
4.77439e-06
4.77757e-06
4.78108e-06
4.78596e-06
4.79107e-06
4.79687e-06
4.803e-06
4.80971e-06
4.81639e-06
4.82363e-06
4.83077e-06
4.83897e-06
4.84653e-06
4.85491e-06
4.8629e-06
4.87128e-06
4.87962e-06
4.88831e-06
4.89634e-06
4.90486e-06
4.91314e-06
4.92161e-06
4.92996e-06
4.93821e-06
4.94623e-06
4.95412e-06
4.96226e-06
4.97089e-06
4.9798e-06
4.98917e-06
4.99937e-06
5.0108e-06
5.02344e-06
5.03738e-06
5.05337e-06
5.07179e-06
5.09288e-06
5.11692e-06
5.14429e-06
5.17538e-06
5.21146e-06
5.25288e-06
5.30046e-06
5.35492e-06
5.41692e-06
5.49137e-06
5.57491e-06
5.68204e-06
5.79795e-06
5.94718e-06
6.10805e-06
6.26886e-06
6.49355e-06
6.768e-06
7.02748e-06
7.5342e-06
4.77518e-06
4.7789e-06
4.78259e-06
4.78666e-06
4.79069e-06
4.79494e-06
4.79896e-06
4.80301e-06
4.80693e-06
4.81046e-06
4.81397e-06
4.81711e-06
4.82052e-06
4.82365e-06
4.82713e-06
4.83072e-06
4.83486e-06
4.83936e-06
4.84438e-06
4.84976e-06
4.85562e-06
4.86167e-06
4.86813e-06
4.87471e-06
4.88173e-06
4.88879e-06
4.89606e-06
4.90345e-06
4.91097e-06
4.91853e-06
4.92631e-06
4.93408e-06
4.94198e-06
4.94997e-06
4.95806e-06
4.96636e-06
4.97474e-06
4.98308e-06
4.99162e-06
5.00062e-06
5.01028e-06
5.02067e-06
5.03192e-06
5.04439e-06
5.05833e-06
5.07388e-06
5.09118e-06
5.11071e-06
5.13273e-06
5.1574e-06
5.18498e-06
5.21592e-06
5.25079e-06
5.29035e-06
5.33535e-06
5.38693e-06
5.44543e-06
5.51448e-06
5.59311e-06
5.68673e-06
5.79526e-06
5.91729e-06
6.06792e-06
6.22356e-06
6.40186e-06
6.63215e-06
6.92617e-06
7.18536e-06
7.71877e-06
4.82126e-06
4.82347e-06
4.82601e-06
4.82907e-06
4.83246e-06
4.83626e-06
4.84035e-06
4.84467e-06
4.84918e-06
4.85367e-06
4.85816e-06
4.86244e-06
4.8667e-06
4.87083e-06
4.87498e-06
4.87915e-06
4.88345e-06
4.88792e-06
4.89264e-06
4.89759e-06
4.90285e-06
4.90835e-06
4.91414e-06
4.92014e-06
4.92641e-06
4.93287e-06
4.93951e-06
4.94633e-06
4.95331e-06
4.96041e-06
4.96771e-06
4.97519e-06
4.98288e-06
4.99081e-06
4.99898e-06
5.00757e-06
5.01648e-06
5.02565e-06
5.03533e-06
5.0457e-06
5.05694e-06
5.0692e-06
5.08262e-06
5.09741e-06
5.1138e-06
5.13199e-06
5.15215e-06
5.1746e-06
5.19958e-06
5.22731e-06
5.25809e-06
5.29241e-06
5.33077e-06
5.37416e-06
5.42321e-06
5.47938e-06
5.54364e-06
5.6184e-06
5.70396e-06
5.80487e-06
5.91809e-06
6.04898e-06
6.20367e-06
6.36541e-06
6.55263e-06
6.79878e-06
7.09392e-06
7.37068e-06
7.99521e-06
4.86895e-06
4.87238e-06
4.87576e-06
4.8792e-06
4.88265e-06
4.88618e-06
4.88982e-06
4.89361e-06
4.89759e-06
4.90171e-06
4.90598e-06
4.9103e-06
4.91467e-06
4.91904e-06
4.92344e-06
4.92786e-06
4.93234e-06
4.9369e-06
4.94157e-06
4.94638e-06
4.95137e-06
4.95653e-06
4.96191e-06
4.96751e-06
4.97333e-06
4.97938e-06
4.98565e-06
4.99215e-06
4.99888e-06
5.00583e-06
5.01304e-06
5.02058e-06
5.02845e-06
5.0367e-06
5.04537e-06
5.05465e-06
5.06444e-06
5.07472e-06
5.08573e-06
5.09763e-06
5.11058e-06
5.12473e-06
5.14019e-06
5.15716e-06
5.17577e-06
5.19622e-06
5.21872e-06
5.24358e-06
5.27111e-06
5.30167e-06
5.33564e-06
5.37361e-06
5.41616e-06
5.46422e-06
5.51858e-06
5.58081e-06
5.65161e-06
5.73322e-06
5.82605e-06
5.93319e-06
6.05192e-06
6.1906e-06
6.34785e-06
6.51232e-06
6.71333e-06
6.97295e-06
7.2759e-06
7.57716e-06
8.24123e-06
4.91455e-06
4.91919e-06
4.92396e-06
4.92878e-06
4.93349e-06
4.93804e-06
4.94243e-06
4.94665e-06
4.95075e-06
4.9548e-06
4.95883e-06
4.96287e-06
4.96695e-06
4.97107e-06
4.97524e-06
4.97947e-06
4.98379e-06
4.9882e-06
4.99272e-06
4.99737e-06
5.00217e-06
5.00714e-06
5.0123e-06
5.01766e-06
5.02326e-06
5.02911e-06
5.03523e-06
5.04164e-06
5.04836e-06
5.0554e-06
5.06282e-06
5.07068e-06
5.07902e-06
5.08787e-06
5.09731e-06
5.10753e-06
5.11841e-06
5.12994e-06
5.14236e-06
5.15582e-06
5.17045e-06
5.18637e-06
5.2037e-06
5.22261e-06
5.24324e-06
5.26581e-06
5.2906e-06
5.31795e-06
5.34828e-06
5.38207e-06
5.41981e-06
5.46213e-06
5.50965e-06
5.56327e-06
5.62368e-06
5.69231e-06
5.7697e-06
5.85767e-06
5.95724e-06
6.0693e-06
6.19507e-06
6.34043e-06
6.50058e-06
6.6744e-06
6.89074e-06
7.17122e-06
7.46999e-06
7.82565e-06
8.49606e-06
4.96291e-06
4.96745e-06
4.9724e-06
4.97769e-06
4.98316e-06
4.98865e-06
4.99405e-06
4.99928e-06
5.00429e-06
5.00906e-06
5.01363e-06
5.01802e-06
5.02229e-06
5.02648e-06
5.03063e-06
5.03478e-06
5.03897e-06
5.04324e-06
5.04761e-06
5.05212e-06
5.05678e-06
5.06163e-06
5.0667e-06
5.072e-06
5.07756e-06
5.08342e-06
5.08959e-06
5.09614e-06
5.10306e-06
5.11041e-06
5.11824e-06
5.12661e-06
5.13559e-06
5.1452e-06
5.15555e-06
5.16681e-06
5.17882e-06
5.19162e-06
5.20544e-06
5.22041e-06
5.23663e-06
5.25423e-06
5.27337e-06
5.29417e-06
5.31687e-06
5.34174e-06
5.36912e-06
5.39945e-06
5.4332e-06
5.47091e-06
5.5131e-06
5.56035e-06
5.61331e-06
5.67259e-06
5.7391e-06
5.81373e-06
5.89718e-06
5.99125e-06
6.09717e-06
6.2145e-06
6.34938e-06
6.49986e-06
6.66695e-06
6.85106e-06
7.08788e-06
7.38296e-06
7.68177e-06
8.14437e-06
8.77021e-06
5.01691e-06
5.02085e-06
5.02518e-06
5.02993e-06
5.03504e-06
5.04042e-06
5.04596e-06
5.05157e-06
5.05713e-06
5.06258e-06
5.06787e-06
5.07297e-06
5.07789e-06
5.08266e-06
5.0873e-06
5.09188e-06
5.09642e-06
5.10099e-06
5.10561e-06
5.11035e-06
5.11522e-06
5.12029e-06
5.12557e-06
5.13111e-06
5.13693e-06
5.14308e-06
5.14959e-06
5.1565e-06
5.16385e-06
5.1717e-06
5.18008e-06
5.18911e-06
5.19882e-06
5.20927e-06
5.22058e-06
5.23289e-06
5.24604e-06
5.26011e-06
5.27532e-06
5.29179e-06
5.30963e-06
5.32901e-06
5.35008e-06
5.37302e-06
5.39814e-06
5.42578e-06
5.45635e-06
5.49031e-06
5.52813e-06
5.57031e-06
5.6173e-06
5.6696e-06
5.72784e-06
5.79233e-06
5.86449e-06
5.94433e-06
6.03374e-06
6.13403e-06
6.24633e-06
6.37064e-06
6.51564e-06
6.67018e-06
6.84901e-06
7.0424e-06
7.31031e-06
7.6007e-06
7.96083e-06
8.46643e-06
9.265e-06
5.07709e-06
5.08071e-06
5.08452e-06
5.08863e-06
5.09301e-06
5.09767e-06
5.10261e-06
5.10776e-06
5.11307e-06
5.11848e-06
5.12392e-06
5.12934e-06
5.13471e-06
5.14001e-06
5.14526e-06
5.15046e-06
5.15564e-06
5.16083e-06
5.16608e-06
5.17142e-06
5.1769e-06
5.18255e-06
5.18841e-06
5.19453e-06
5.20094e-06
5.20769e-06
5.21481e-06
5.22237e-06
5.23039e-06
5.23895e-06
5.2481e-06
5.25795e-06
5.26857e-06
5.28e-06
5.29243e-06
5.30595e-06
5.32041e-06
5.33594e-06
5.35275e-06
5.37098e-06
5.39075e-06
5.41225e-06
5.43564e-06
5.46119e-06
5.48925e-06
5.52018e-06
5.55446e-06
5.59246e-06
5.63462e-06
5.68133e-06
5.73287e-06
5.78987e-06
5.85267e-06
5.92196e-06
5.9993e-06
6.08412e-06
6.18038e-06
6.28704e-06
6.40711e-06
6.53998e-06
6.69549e-06
6.85331e-06
7.04956e-06
7.252e-06
7.5569e-06
7.84558e-06
8.30529e-06
8.88751e-06
9.95508e-06
5.14296e-06
5.14654e-06
5.15021e-06
5.15401e-06
5.15795e-06
5.16205e-06
5.16635e-06
5.17085e-06
5.17557e-06
5.18047e-06
5.18555e-06
5.19078e-06
5.19612e-06
5.20156e-06
5.20709e-06
5.2127e-06
5.21839e-06
5.22418e-06
5.2301e-06
5.23616e-06
5.2424e-06
5.24885e-06
5.25554e-06
5.26251e-06
5.2698e-06
5.27744e-06
5.28548e-06
5.29398e-06
5.30297e-06
5.31254e-06
5.32276e-06
5.33375e-06
5.34557e-06
5.35833e-06
5.37221e-06
5.38725e-06
5.40334e-06
5.42067e-06
5.43942e-06
5.45973e-06
5.48176e-06
5.50572e-06
5.53179e-06
5.5603e-06
5.59166e-06
5.62619e-06
5.66434e-06
5.70635e-06
5.75263e-06
5.80344e-06
5.85899e-06
5.92025e-06
5.98709e-06
6.06148e-06
6.14393e-06
6.23489e-06
6.33909e-06
6.45278e-06
6.58243e-06
6.72463e-06
6.88966e-06
7.05167e-06
7.27097e-06
7.48313e-06
7.83572e-06
8.14727e-06
8.75221e-06
9.53798e-06
1.06293e-05
5.21575e-06
5.21944e-06
5.22318e-06
5.22701e-06
5.23089e-06
5.23484e-06
5.23889e-06
5.24307e-06
5.24741e-06
5.25192e-06
5.25663e-06
5.26154e-06
5.26665e-06
5.27197e-06
5.27749e-06
5.28321e-06
5.28914e-06
5.29529e-06
5.30165e-06
5.30826e-06
5.31512e-06
5.32228e-06
5.32974e-06
5.33756e-06
5.34576e-06
5.35439e-06
5.36349e-06
5.37312e-06
5.38333e-06
5.39417e-06
5.40574e-06
5.41817e-06
5.43151e-06
5.44587e-06
5.46147e-06
5.47826e-06
5.49617e-06
5.51547e-06
5.53633e-06
5.5589e-06
5.58341e-06
5.61007e-06
5.63907e-06
5.67083e-06
5.70566e-06
5.74385e-06
5.78572e-06
5.8314e-06
5.88135e-06
5.93572e-06
5.99506e-06
6.06056e-06
6.1318e-06
6.21246e-06
6.30047e-06
6.39996e-06
6.51243e-06
6.63447e-06
6.77475e-06
6.92568e-06
7.09884e-06
7.26872e-06
7.51836e-06
7.74365e-06
8.17905e-06
8.54454e-06
9.4564e-06
1.01494e-05
1.27075e-05
5.295e-06
5.29892e-06
5.30288e-06
5.30692e-06
5.31099e-06
5.31511e-06
5.31929e-06
5.32355e-06
5.32792e-06
5.33243e-06
5.3371e-06
5.34197e-06
5.34704e-06
5.35235e-06
5.35791e-06
5.36373e-06
5.36984e-06
5.37623e-06
5.38292e-06
5.38994e-06
5.3973e-06
5.40502e-06
5.41314e-06
5.4217e-06
5.43073e-06
5.44029e-06
5.45041e-06
5.46116e-06
5.47258e-06
5.48473e-06
5.49772e-06
5.51166e-06
5.52659e-06
5.54266e-06
5.56008e-06
5.57875e-06
5.59869e-06
5.62022e-06
5.6435e-06
5.66874e-06
5.69612e-06
5.72584e-06
5.75808e-06
5.79326e-06
5.83146e-06
5.87305e-06
5.91816e-06
5.96704e-06
6.02035e-06
6.07819e-06
6.14194e-06
6.21232e-06
6.28956e-06
6.37785e-06
6.4727e-06
6.58304e-06
6.70301e-06
6.83523e-06
6.985e-06
7.1439e-06
7.32416e-06
7.5147e-06
7.79704e-06
8.07261e-06
8.62e-06
9.142e-06
1.03086e-05
1.13079e-05
1.73783e-05
5.38202e-06
5.38626e-06
5.39053e-06
5.39488e-06
5.39928e-06
5.40373e-06
5.40824e-06
5.41283e-06
5.41752e-06
5.42235e-06
5.42734e-06
5.43251e-06
5.4379e-06
5.44353e-06
5.44944e-06
5.45563e-06
5.46215e-06
5.469e-06
5.47622e-06
5.48382e-06
5.49182e-06
5.50026e-06
5.50917e-06
5.51858e-06
5.52855e-06
5.53911e-06
5.55032e-06
5.56224e-06
5.57491e-06
5.58842e-06
5.60286e-06
5.61835e-06
5.63496e-06
5.65285e-06
5.67221e-06
5.69293e-06
5.71511e-06
5.73907e-06
5.76492e-06
5.79289e-06
5.82302e-06
5.85556e-06
5.89057e-06
5.92856e-06
5.96939e-06
6.01375e-06
6.06162e-06
6.11375e-06
6.17089e-06
6.23326e-06
6.30304e-06
6.37961e-06
6.46525e-06
6.56168e-06
6.66553e-06
6.78682e-06
6.91346e-06
7.05669e-06
7.21366e-06
7.38033e-06
7.57607e-06
7.80376e-06
8.1373e-06
8.52707e-06
9.24394e-06
1.00197e-05
1.1382e-05
1.30437e-05
2.0989e-05
5.47738e-06
5.48208e-06
5.48681e-06
5.49165e-06
5.49653e-06
5.50148e-06
5.5065e-06
5.5116e-06
5.51682e-06
5.52218e-06
5.52771e-06
5.53344e-06
5.5394e-06
5.54562e-06
5.55214e-06
5.55899e-06
5.5662e-06
5.5738e-06
5.58182e-06
5.59029e-06
5.59923e-06
5.60868e-06
5.61867e-06
5.62923e-06
5.64041e-06
5.65224e-06
5.66478e-06
5.67808e-06
5.69219e-06
5.7072e-06
5.72322e-06
5.74036e-06
5.75869e-06
5.77844e-06
5.79967e-06
5.8223e-06
5.84652e-06
5.87256e-06
5.9005e-06
5.93061e-06
5.9628e-06
5.99753e-06
6.03469e-06
6.07516e-06
6.11853e-06
6.16618e-06
6.21766e-06
6.2746e-06
6.3372e-06
6.40614e-06
6.48362e-06
6.56781e-06
6.66355e-06
6.76776e-06
6.88284e-06
7.01203e-06
7.14612e-06
7.29934e-06
7.46247e-06
7.64544e-06
7.877e-06
8.16373e-06
8.60723e-06
9.18469e-06
1.00936e-05
1.11514e-05
1.30251e-05
1.73034e-05
2.44482e-05
5.5846e-06
5.58982e-06
5.59511e-06
5.60054e-06
5.60606e-06
5.61165e-06
5.61735e-06
5.62316e-06
5.62911e-06
5.63521e-06
5.64151e-06
5.64802e-06
5.65479e-06
5.66185e-06
5.66922e-06
5.67696e-06
5.68509e-06
5.69365e-06
5.70267e-06
5.71217e-06
5.7222e-06
5.73278e-06
5.74393e-06
5.7557e-06
5.76812e-06
5.78123e-06
5.79508e-06
5.80972e-06
5.82521e-06
5.84163e-06
5.85911e-06
5.87774e-06
5.89759e-06
5.91894e-06
5.9417e-06
5.96591e-06
5.99178e-06
6.01956e-06
6.04927e-06
6.08134e-06
6.11553e-06
6.15275e-06
6.19254e-06
6.23648e-06
6.28353e-06
6.33614e-06
6.39282e-06
6.45645e-06
6.52585e-06
6.60296e-06
6.6888e-06
6.78189e-06
6.88801e-06
6.99969e-06
7.12654e-06
7.25892e-06
7.4044e-06
7.56493e-06
7.74372e-06
7.9681e-06
8.25931e-06
8.65851e-06
9.29431e-06
1.0015e-05
1.11994e-05
1.28529e-05
1.73896e-05
2.22051e-05
2.47882e-05
5.70434e-06
5.71019e-06
5.71616e-06
5.72234e-06
5.72864e-06
5.73507e-06
5.74164e-06
5.74835e-06
5.75523e-06
5.76229e-06
5.76958e-06
5.7771e-06
5.78489e-06
5.79299e-06
5.80142e-06
5.81022e-06
5.81943e-06
5.82907e-06
5.83918e-06
5.8498e-06
5.86094e-06
5.87265e-06
5.88494e-06
5.89787e-06
5.91146e-06
5.92577e-06
5.94083e-06
5.95672e-06
5.97347e-06
5.99123e-06
6.01005e-06
6.03006e-06
6.05138e-06
6.07425e-06
6.09852e-06
6.12441e-06
6.15207e-06
6.18192e-06
6.21384e-06
6.24859e-06
6.28563e-06
6.32656e-06
6.37018e-06
6.41922e-06
6.4713e-06
6.53061e-06
6.59354e-06
6.66537e-06
6.74215e-06
6.82882e-06
6.92313e-06
7.02649e-06
7.14153e-06
7.26057e-06
7.39619e-06
7.53116e-06
7.69457e-06
7.86657e-06
8.09311e-06
8.38966e-06
8.7733e-06
9.37962e-06
1.00725e-05
1.11e-05
1.28878e-05
1.71871e-05
2.17622e-05
2.36181e-05
2.54872e-05
5.8428e-06
5.84922e-06
5.85583e-06
5.86271e-06
5.86979e-06
5.87705e-06
5.8845e-06
5.89214e-06
5.89999e-06
5.90806e-06
5.91637e-06
5.92496e-06
5.93385e-06
5.94305e-06
5.9526e-06
5.96254e-06
5.97287e-06
5.98364e-06
5.99487e-06
6.0066e-06
6.01884e-06
6.03163e-06
6.045e-06
6.05901e-06
6.07368e-06
6.08909e-06
6.10527e-06
6.12233e-06
6.14029e-06
6.15937e-06
6.17956e-06
6.20107e-06
6.22404e-06
6.2487e-06
6.27488e-06
6.30304e-06
6.33321e-06
6.36602e-06
6.40115e-06
6.43972e-06
6.4808e-06
6.52676e-06
6.57541e-06
6.63088e-06
6.68888e-06
6.75611e-06
6.82575e-06
6.9071e-06
6.99143e-06
7.08908e-06
7.19111e-06
7.30525e-06
7.42537e-06
7.5521e-06
7.69422e-06
7.84235e-06
8.03454e-06
8.24467e-06
8.56254e-06
8.94254e-06
9.49026e-06
1.01088e-05
1.11059e-05
1.29198e-05
1.74842e-05
2.06558e-05
2.29e-05
2.35984e-05
2.55722e-05
6.00147e-06
6.0087e-06
6.01618e-06
6.02399e-06
6.03206e-06
6.04037e-06
6.04891e-06
6.05769e-06
6.0667e-06
6.07597e-06
6.08551e-06
6.09533e-06
6.10547e-06
6.11593e-06
6.12675e-06
6.13795e-06
6.14954e-06
6.16157e-06
6.17404e-06
6.187e-06
6.20046e-06
6.21448e-06
6.22908e-06
6.24433e-06
6.26027e-06
6.27701e-06
6.29456e-06
6.31309e-06
6.33261e-06
6.35339e-06
6.37538e-06
6.39892e-06
6.42411e-06
6.45115e-06
6.47994e-06
6.51109e-06
6.54454e-06
6.58104e-06
6.6202e-06
6.66329e-06
6.70932e-06
6.76089e-06
6.81546e-06
6.87771e-06
6.94263e-06
7.01806e-06
7.09561e-06
7.18691e-06
7.2797e-06
7.38796e-06
7.49652e-06
7.61926e-06
7.7424e-06
7.88223e-06
8.03882e-06
8.22407e-06
8.46365e-06
8.75705e-06
9.15922e-06
9.6371e-06
1.01079e-05
1.11003e-05
1.31354e-05
1.76867e-05
2.0129e-05
2.16515e-05
2.21845e-05
2.35344e-05
2.4436e-05
6.18953e-06
6.19755e-06
6.20585e-06
6.21456e-06
6.22358e-06
6.23289e-06
6.24249e-06
6.25238e-06
6.26254e-06
6.27299e-06
6.28374e-06
6.2948e-06
6.30618e-06
6.3179e-06
6.32998e-06
6.34244e-06
6.35531e-06
6.36861e-06
6.38237e-06
6.39664e-06
6.41143e-06
6.42682e-06
6.44283e-06
6.45954e-06
6.47701e-06
6.49535e-06
6.51459e-06
6.53492e-06
6.5564e-06
6.57926e-06
6.60353e-06
6.6296e-06
6.65751e-06
6.68746e-06
6.71957e-06
6.75436e-06
6.79189e-06
6.83271e-06
6.87677e-06
6.92485e-06
6.9769e-06
7.03425e-06
7.09627e-06
7.16513e-06
7.23941e-06
7.32235e-06
7.41122e-06
7.51031e-06
7.61406e-06
7.72807e-06
7.84486e-06
7.97342e-06
8.11177e-06
8.27775e-06
8.47074e-06
8.72267e-06
9.01206e-06
9.39278e-06
9.76037e-06
1.01738e-05
1.0971e-05
1.36058e-05
1.74277e-05
1.93565e-05
2.04533e-05
2.08537e-05
2.08994e-05
2.15176e-05
2.28444e-05
6.40949e-06
6.4188e-06
6.42843e-06
6.43851e-06
6.44895e-06
6.45972e-06
6.47082e-06
6.48223e-06
6.49395e-06
6.50598e-06
6.51831e-06
6.53097e-06
6.54396e-06
6.55729e-06
6.57098e-06
6.58504e-06
6.59952e-06
6.61443e-06
6.62981e-06
6.6457e-06
6.66215e-06
6.67923e-06
6.69697e-06
6.71549e-06
6.73482e-06
6.75512e-06
6.77642e-06
6.79895e-06
6.82279e-06
6.84814e-06
6.87516e-06
6.90419e-06
6.93524e-06
6.96849e-06
7.00435e-06
7.04297e-06
7.08504e-06
7.13023e-06
7.17997e-06
7.23314e-06
7.29265e-06
7.35598e-06
7.42784e-06
7.50336e-06
7.59053e-06
7.67941e-06
7.78331e-06
7.88477e-06
8.00276e-06
8.1183e-06
8.25196e-06
8.39756e-06
8.57701e-06
8.7746e-06
9.04392e-06
9.308e-06
9.62654e-06
9.85755e-06
1.02181e-05
1.08755e-05
1.37415e-05
1.71689e-05
1.7656e-05
1.79819e-05
1.8559e-05
2.02461e-05
2.14533e-05
2.2438e-05
2.28104e-05
6.67681e-06
6.68717e-06
6.6979e-06
6.70913e-06
6.72076e-06
6.73276e-06
6.74512e-06
6.75783e-06
6.77088e-06
6.78427e-06
6.798e-06
6.81207e-06
6.8265e-06
6.84128e-06
6.85645e-06
6.87202e-06
6.88802e-06
6.9045e-06
6.92148e-06
6.93903e-06
6.9572e-06
6.97607e-06
6.9957e-06
7.0162e-06
7.03766e-06
7.0602e-06
7.08397e-06
7.1091e-06
7.13584e-06
7.16422e-06
7.19472e-06
7.22728e-06
7.26238e-06
7.29982e-06
7.34083e-06
7.38436e-06
7.43289e-06
7.4836e-06
7.54154e-06
7.60109e-06
7.67106e-06
7.74172e-06
7.82616e-06
7.9091e-06
8.01013e-06
8.10297e-06
8.22149e-06
8.32265e-06
8.46361e-06
8.58946e-06
8.75191e-06
8.96446e-06
9.15669e-06
9.3916e-06
9.53948e-06
9.75386e-06
9.89957e-06
1.01848e-05
1.08479e-05
1.35795e-05
1.70176e-05
1.87119e-05
1.90107e-05
1.91514e-05
1.94222e-05
2.01969e-05
2.07389e-05
2.02923e-05
1.96926e-05
6.99874e-06
7.01133e-06
7.02432e-06
7.03786e-06
7.05182e-06
7.06616e-06
7.08088e-06
7.09593e-06
7.11132e-06
7.12703e-06
7.14306e-06
7.15941e-06
7.17609e-06
7.1931e-06
7.21046e-06
7.22821e-06
7.24636e-06
7.26498e-06
7.2841e-06
7.30381e-06
7.32417e-06
7.34527e-06
7.36723e-06
7.3901e-06
7.41411e-06
7.43923e-06
7.46593e-06
7.49394e-06
7.52409e-06
7.55574e-06
7.59043e-06
7.62661e-06
7.66662e-06
7.70827e-06
7.7554e-06
7.80388e-06
7.86039e-06
7.91686e-06
7.98531e-06
8.05138e-06
8.13387e-06
8.21123e-06
8.30751e-06
8.39664e-06
8.50526e-06
8.60538e-06
8.73543e-06
8.86208e-06
9.04913e-06
9.19057e-06
9.34483e-06
9.48458e-06
9.46796e-06
9.59674e-06
9.58492e-06
9.77861e-06
1.00077e-05
1.0865e-05
1.30972e-05
1.57145e-05
1.84014e-05
1.97958e-05
1.97074e-05
2.07277e-05
2.09359e-05
1.95058e-05
1.7298e-05
1.68872e-05
1.79792e-05
7.4002e-06
7.4138e-06
7.42789e-06
7.44263e-06
7.45786e-06
7.47357e-06
7.48973e-06
7.50631e-06
7.52329e-06
7.54067e-06
7.55844e-06
7.5766e-06
7.59514e-06
7.61409e-06
7.63347e-06
7.6533e-06
7.67364e-06
7.69453e-06
7.71606e-06
7.73829e-06
7.76135e-06
7.78528e-06
7.81034e-06
7.83643e-06
7.86413e-06
7.89295e-06
7.92417e-06
7.95639e-06
7.99213e-06
8.02859e-06
8.07013e-06
8.11182e-06
8.16047e-06
8.20888e-06
8.26621e-06
8.3224e-06
8.39033e-06
8.45417e-06
8.53502e-06
8.60558e-06
8.6999e-06
8.77713e-06
8.88264e-06
8.97022e-06
9.08903e-06
9.21802e-06
9.35891e-06
9.44177e-06
9.52938e-06
9.48552e-06
9.43521e-06
9.46903e-06
9.14488e-06
9.17198e-06
9.37617e-06
9.71638e-06
1.03971e-05
1.19365e-05
1.38985e-05
1.67432e-05
1.86954e-05
1.98806e-05
2.04539e-05
2.01055e-05
1.70915e-05
1.49417e-05
1.4894e-05
1.55263e-05
1.77588e-05
7.90879e-06
7.92604e-06
7.94374e-06
7.96211e-06
7.981e-06
8.00037e-06
8.02019e-06
8.04043e-06
8.06107e-06
8.08209e-06
8.10351e-06
8.12532e-06
8.14752e-06
8.17013e-06
8.19318e-06
8.21671e-06
8.24076e-06
8.26542e-06
8.29076e-06
8.31686e-06
8.34387e-06
8.37181e-06
8.40111e-06
8.43143e-06
8.46392e-06
8.49729e-06
8.53406e-06
8.57101e-06
8.61351e-06
8.65488e-06
8.70402e-06
8.75029e-06
8.80692e-06
8.85957e-06
8.92354e-06
8.98369e-06
9.05482e-06
9.12071e-06
9.20136e-06
9.26719e-06
9.35895e-06
9.43053e-06
9.52921e-06
9.61292e-06
9.66677e-06
9.68592e-06
9.65228e-06
9.62227e-06
9.51618e-06
9.30242e-06
9.03752e-06
8.93982e-06
8.44185e-06
8.5921e-06
9.06476e-06
9.50586e-06
1.03261e-05
1.20382e-05
1.40128e-05
1.64941e-05
1.87249e-05
1.91062e-05
1.86248e-05
1.50776e-05
1.2549e-05
1.18994e-05
1.28603e-05
1.60205e-05
1.96533e-05
8.58694e-06
8.60498e-06
8.62368e-06
8.64318e-06
8.66334e-06
8.68413e-06
8.70554e-06
8.72751e-06
8.75005e-06
8.77314e-06
8.7968e-06
8.82104e-06
8.84587e-06
8.87134e-06
8.89748e-06
8.92439e-06
8.95208e-06
8.9808e-06
9.01043e-06
9.04143e-06
9.07354e-06
9.10735e-06
9.14268e-06
9.17964e-06
9.21888e-06
9.25899e-06
9.30274e-06
9.34569e-06
9.39438e-06
9.43985e-06
9.49377e-06
9.54189e-06
9.60042e-06
9.65077e-06
9.70909e-06
9.76276e-06
9.81542e-06
9.87243e-06
9.91778e-06
9.96805e-06
1.00096e-05
1.00074e-05
9.98664e-06
9.94093e-06
9.82889e-06
9.74577e-06
9.58666e-06
9.35754e-06
9.10547e-06
8.7793e-06
8.59239e-06
8.48483e-06
8.02318e-06
8.24105e-06
8.89413e-06
9.49901e-06
1.0392e-05
1.21334e-05
1.30481e-05
1.3457e-05
1.37977e-05
1.4407e-05
1.24496e-05
9.94624e-06
8.21428e-06
8.81279e-06
1.04349e-05
1.49457e-05
2.07693e-05
9.50714e-06
9.53296e-06
9.5594e-06
9.5869e-06
9.61518e-06
9.64423e-06
9.67389e-06
9.70416e-06
9.73486e-06
9.76603e-06
9.79755e-06
9.82945e-06
9.8616e-06
9.89409e-06
9.9267e-06
9.95966e-06
9.99246e-06
1.00258e-05
1.00585e-05
1.00919e-05
1.01242e-05
1.01572e-05
1.01879e-05
1.02186e-05
1.02469e-05
1.02736e-05
1.03001e-05
1.03233e-05
1.03483e-05
1.03696e-05
1.03941e-05
1.04167e-05
1.04419e-05
1.04596e-05
1.04805e-05
1.04827e-05
1.04732e-05
1.04517e-05
1.04088e-05
1.03598e-05
1.02918e-05
1.01695e-05
1.00775e-05
9.91069e-06
9.81073e-06
9.62196e-06
9.4066e-06
9.16498e-06
8.93999e-06
8.61741e-06
8.03355e-06
7.82811e-06
7.64877e-06
7.55914e-06
7.93713e-06
7.62843e-06
7.47856e-06
6.3602e-06
6.1517e-06
6.04145e-06
6.15047e-06
6.52109e-06
6.28166e-06
5.37346e-06
4.77845e-06
5.45481e-06
7.21917e-06
1.31793e-05
2.36336e-05
1.10044e-05
1.10146e-05
1.1021e-05
1.10263e-05
1.10297e-05
1.10318e-05
1.10332e-05
1.10337e-05
1.10363e-05
1.10372e-05
1.10377e-05
1.10379e-05
1.10375e-05
1.10365e-05
1.1035e-05
1.10324e-05
1.10289e-05
1.10227e-05
1.10131e-05
1.10005e-05
1.09897e-05
1.09778e-05
1.09554e-05
1.09306e-05
1.08971e-05
1.0864e-05
1.08348e-05
1.08009e-05
1.07859e-05
1.07827e-05
1.07949e-05
1.08013e-05
1.08235e-05
1.08663e-05
1.08523e-05
1.09044e-05
1.08902e-05
1.0877e-05
1.09335e-05
1.10278e-05
1.08889e-05
1.0857e-05
1.09261e-05
1.07464e-05
1.05771e-05
1.01749e-05
9.67421e-06
9.23212e-06
8.72009e-06
8.08711e-06
7.26914e-06
6.44712e-06
5.53744e-06
4.51214e-06
3.47521e-06
2.73674e-06
2.15761e-06
1.75533e-06
1.73832e-06
1.99654e-06
2.4123e-06
2.69102e-06
2.83138e-06
2.16651e-06
1.79962e-06
3.19574e-06
6.49796e-06
1.34648e-05
2.52856e-05
1.03533e-05
1.03637e-05
1.03768e-05
1.03917e-05
1.04091e-05
1.0428e-05
1.0449e-05
1.04712e-05
1.04954e-05
1.05202e-05
1.05471e-05
1.05734e-05
1.0602e-05
1.0627e-05
1.06644e-05
1.06528e-05
1.06713e-05
1.06935e-05
1.07147e-05
1.07305e-05
1.07665e-05
1.07664e-05
1.08403e-05
1.09812e-05
1.12453e-05
1.15493e-05
1.19657e-05
1.24301e-05
1.29441e-05
1.351e-05
1.4079e-05
1.46722e-05
1.5305e-05
1.58309e-05
1.64311e-05
1.69428e-05
1.71826e-05
1.72313e-05
1.7183e-05
1.70227e-05
1.66559e-05
1.57343e-05
1.43818e-05
1.30046e-05
1.15156e-05
9.79391e-06
7.98563e-06
6.05033e-06
4.21303e-06
2.86804e-06
1.9507e-06
1.34674e-06
9.5066e-07
6.90033e-07
5.25404e-07
4.19364e-07
3.38032e-07
3.15786e-07
3.26288e-07
4.16425e-07
6.4591e-07
8.81527e-07
9.14296e-07
5.95575e-07
5.58802e-07
1.16545e-06
2.92252e-06
7.09568e-06
1.40409e-05
2.62864e-05
2.7242e-05
2.82164e-05
2.91963e-05
3.01929e-05
3.11904e-05
3.21987e-05
3.3207e-05
3.42164e-05
3.52269e-05
3.6229e-05
3.72287e-05
3.82192e-05
3.91939e-05
4.01644e-05
4.11072e-05
4.20415e-05
4.2945e-05
4.38368e-05
4.4687e-05
4.55121e-05
4.63402e-05
4.71096e-05
4.76899e-05
4.81804e-05
4.82727e-05
4.90133e-05
4.91674e-05
4.87996e-05
4.79972e-05
4.70019e-05
4.58263e-05
4.44337e-05
4.27922e-05
4.08817e-05
3.86852e-05
3.61843e-05
3.33836e-05
3.03031e-05
2.69876e-05
2.35122e-05
1.99606e-05
1.64519e-05
1.31305e-05
1.01046e-05
7.36655e-06
4.78604e-06
2.7229e-06
1.3519e-06
6.04073e-07
2.5952e-07
1.16108e-07
5.96063e-08
4.78534e-08
6.48463e-08
8.30256e-08
9.43969e-08
9.99721e-08
1.0295e-07
1.1328e-07
1.54597e-07
2.53067e-07
3.53939e-07
4.44991e-07
6.41963e-07
8.62322e-07
1.6383e-06
3.17378e-06
3.63857e-06
4.79557e-06
4.79601e-06
4.79582e-06
4.79505e-06
4.79199e-06
4.79257e-06
4.79148e-06
4.79308e-06
4.79507e-06
4.79555e-06
4.79744e-06
4.80031e-06
4.80255e-06
4.80337e-06
4.79836e-06
4.79614e-06
4.79618e-06
4.796e-06
4.79256e-06
4.78639e-06
4.78614e-06
4.78936e-06
4.78497e-06
4.78262e-06
4.77662e-06
4.77203e-06
4.77193e-06
4.77183e-06
4.77256e-06
4.77014e-06
4.76567e-06
4.76296e-06
4.76187e-06
4.75799e-06
4.75505e-06
4.75113e-06
4.74978e-06
4.74685e-06
4.74276e-06
4.73904e-06
4.73518e-06
4.73353e-06
4.73016e-06
4.72519e-06
4.72372e-06
4.72099e-06
4.71944e-06
4.71697e-06
4.71387e-06
4.71187e-06
4.71255e-06
4.71395e-06
4.7141e-06
4.71482e-06
4.71458e-06
4.71356e-06
4.71018e-06
4.71062e-06
4.71189e-06
4.82116e-06
4.81869e-06
4.81959e-06
4.82031e-06
4.82013e-06
4.82048e-06
4.81934e-06
4.82136e-06
4.82147e-06
4.82215e-06
4.82155e-06
4.82753e-06
4.82981e-06
4.82471e-06
4.82101e-06
4.81975e-06
4.81957e-06
4.81772e-06
4.81145e-06
4.8097e-06
4.81015e-06
4.81242e-06
4.80578e-06
4.80363e-06
4.79701e-06
4.79412e-06
4.7943e-06
4.79392e-06
4.79385e-06
4.7909e-06
4.7869e-06
4.78444e-06
4.78289e-06
4.77926e-06
4.77655e-06
4.77293e-06
4.7711e-06
4.76896e-06
4.7661e-06
4.76234e-06
4.75818e-06
4.7564e-06
4.75443e-06
4.75043e-06
4.74822e-06
4.74645e-06
4.74494e-06
4.74353e-06
4.74218e-06
4.73858e-06
4.73821e-06
4.73781e-06
4.73861e-06
4.74094e-06
4.74146e-06
4.74154e-06
4.74155e-06
4.74152e-06
4.74293e-06
4.85131e-06
4.85172e-06
4.8504e-06
4.85251e-06
4.85295e-06
4.85264e-06
4.85243e-06
4.85199e-06
4.85209e-06
4.8513e-06
4.85446e-06
4.8571e-06
4.85146e-06
4.84927e-06
4.84857e-06
4.84902e-06
4.84832e-06
4.84075e-06
4.83779e-06
4.83766e-06
4.83861e-06
4.83598e-06
4.8304e-06
4.82784e-06
4.8213e-06
4.81939e-06
4.8193e-06
4.81899e-06
4.81826e-06
4.81497e-06
4.81145e-06
4.80902e-06
4.80712e-06
4.8037e-06
4.80107e-06
4.79775e-06
4.79563e-06
4.79368e-06
4.79156e-06
4.78875e-06
4.78483e-06
4.78293e-06
4.78122e-06
4.77893e-06
4.7766e-06
4.7752e-06
4.77341e-06
4.77219e-06
4.77043e-06
4.76859e-06
4.76869e-06
4.77e-06
4.77115e-06
4.77032e-06
4.7698e-06
4.76958e-06
4.76992e-06
4.76976e-06
4.77166e-06
4.88879e-06
4.88867e-06
4.88805e-06
4.88799e-06
4.88842e-06
4.88636e-06
4.88725e-06
4.88871e-06
4.88839e-06
4.88819e-06
4.88565e-06
4.88261e-06
4.88159e-06
4.88188e-06
4.8823e-06
4.88002e-06
4.87361e-06
4.86888e-06
4.86756e-06
4.86823e-06
4.86676e-06
4.86334e-06
4.85786e-06
4.85455e-06
4.84871e-06
4.84751e-06
4.84734e-06
4.84682e-06
4.84531e-06
4.84194e-06
4.83877e-06
4.8363e-06
4.8342e-06
4.83099e-06
4.82843e-06
4.82553e-06
4.82325e-06
4.82132e-06
4.81961e-06
4.81762e-06
4.81499e-06
4.81275e-06
4.81097e-06
4.80975e-06
4.80767e-06
4.8054e-06
4.8045e-06
4.8026e-06
4.80123e-06
4.80145e-06
4.80214e-06
4.80361e-06
4.80608e-06
4.80871e-06
4.8109e-06
4.81302e-06
4.81562e-06
4.81776e-06
4.81917e-06
4.92662e-06
4.9271e-06
4.92582e-06
4.92824e-06
4.92807e-06
4.9274e-06
4.92763e-06
4.9247e-06
4.92307e-06
4.92101e-06
4.91898e-06
4.91952e-06
4.91967e-06
4.91973e-06
4.91442e-06
4.91001e-06
4.90385e-06
4.90221e-06
4.90254e-06
4.90287e-06
4.89833e-06
4.89518e-06
4.88836e-06
4.88554e-06
4.88025e-06
4.8795e-06
4.87911e-06
4.87797e-06
4.87608e-06
4.87264e-06
4.86969e-06
4.86716e-06
4.86494e-06
4.86194e-06
4.8594e-06
4.85681e-06
4.85451e-06
4.85258e-06
4.8509e-06
4.84944e-06
4.84772e-06
4.84558e-06
4.84387e-06
4.84189e-06
4.84096e-06
4.83998e-06
4.83931e-06
4.83803e-06
4.83916e-06
4.84031e-06
4.84157e-06
4.84308e-06
4.84534e-06
4.84821e-06
4.85132e-06
4.85469e-06
4.85833e-06
4.86225e-06
4.86532e-06
4.97656e-06
4.97637e-06
4.97543e-06
4.97516e-06
4.97385e-06
4.97235e-06
4.96671e-06
4.96432e-06
4.96332e-06
4.96205e-06
4.96298e-06
4.96191e-06
4.96086e-06
4.95358e-06
4.94927e-06
4.94333e-06
4.94132e-06
4.94171e-06
4.94227e-06
4.93816e-06
4.93374e-06
4.92834e-06
4.92309e-06
4.91982e-06
4.91523e-06
4.91485e-06
4.91402e-06
4.91246e-06
4.90998e-06
4.90667e-06
4.90387e-06
4.90129e-06
4.89894e-06
4.8961e-06
4.89361e-06
4.89125e-06
4.88909e-06
4.88717e-06
4.88585e-06
4.88465e-06
4.88318e-06
4.88188e-06
4.8811e-06
4.88061e-06
4.88073e-06
4.8809e-06
4.8813e-06
4.8814e-06
4.88249e-06
4.88392e-06
4.88567e-06
4.88756e-06
4.88979e-06
4.89243e-06
4.89537e-06
4.89873e-06
4.90232e-06
4.90643e-06
4.91004e-06
5.02077e-06
5.01887e-06
5.0176e-06
5.01636e-06
5.0148e-06
5.01327e-06
5.01072e-06
5.00935e-06
5.00834e-06
5.00788e-06
5.00678e-06
5.00379e-06
4.99956e-06
4.99318e-06
4.98805e-06
4.98662e-06
4.98691e-06
4.9874e-06
4.98218e-06
4.97798e-06
4.97185e-06
4.968e-06
4.96278e-06
4.95927e-06
4.95534e-06
4.9551e-06
4.95349e-06
4.95126e-06
4.94865e-06
4.94538e-06
4.94266e-06
4.94002e-06
4.93758e-06
4.93485e-06
4.93243e-06
4.93019e-06
4.92816e-06
4.92656e-06
4.92541e-06
4.92445e-06
4.92395e-06
4.92348e-06
4.9233e-06
4.9237e-06
4.92482e-06
4.92608e-06
4.92734e-06
4.92846e-06
4.92999e-06
4.93182e-06
4.93402e-06
4.93645e-06
4.93908e-06
4.94193e-06
4.94491e-06
4.94817e-06
4.95154e-06
4.95527e-06
4.95863e-06
5.07188e-06
5.07013e-06
5.06847e-06
5.06708e-06
5.06539e-06
5.06377e-06
5.0617e-06
5.06033e-06
5.05855e-06
5.05667e-06
5.0534e-06
5.04905e-06
5.04377e-06
5.03974e-06
5.03716e-06
5.03707e-06
5.03722e-06
5.03068e-06
5.02586e-06
5.02133e-06
5.01625e-06
5.01174e-06
5.00667e-06
5.00319e-06
4.99954e-06
4.999e-06
4.99681e-06
4.99431e-06
4.99125e-06
4.98815e-06
4.98549e-06
4.98279e-06
4.98023e-06
4.97755e-06
4.97522e-06