/*--------------------------------*- C++ -*----------------------------------*\
| =========                 |                                                 |
| \\      /  F ield         | OpenFOAM: The Open Source CFD Toolbox           |
|  \\    /   O peration     | Version:  2312                                  |
|   \\  /    A nd           | Website:  www.openfoam.com                      |
|    \\/     M anipulation  |                                                 |
\*---------------------------------------------------------------------------*/
FoamFile
{
    version     2.0;
    format      ascii;
    arch        "LSB;label=32;scalar=64";
    class       volScalarField;
    location    "900";
    object      nut;
}
// * * * * * * * * * * * * * * * * * * * * * * * * * * * * * * * * * * * * * //

dimensions      [0 2 -1 0 0 0 0];

internalField   nonuniform List<scalar> 
76025
(
8.26897e-05
8.44098e-05
8.54038e-05
8.49333e-05
8.41502e-05
8.32098e-05
8.41065e-05
8.44539e-05
8.71312e-05
8.67592e-05
8.66998e-05
8.69383e-05
8.84229e-05
8.95829e-05
8.9591e-05
9.07806e-05
8.97495e-05
9.07462e-05
9.20725e-05
9.25905e-05
9.24671e-05
9.36615e-05
9.39681e-05
9.35948e-05
9.47574e-05
9.37361e-05
9.22136e-05
9.51718e-05
9.15543e-05
9.24956e-05
9.91219e-05
9.84871e-05
9.63732e-05
9.85951e-05
9.81858e-05
0.00010042
9.8784e-05
0.000101219
0.000104826
0.000104636
0.000105574
0.000105482
0.000106832
0.000109759
0.000110048
0.000110399
0.00010883
0.000109087
0.000109941
0.000109135
0.000107116
0.000105183
0.000101988
9.54032e-05
8.9152e-05
8.43187e-05
7.90094e-05
7.40621e-05
7.06983e-05
6.81156e-05
6.45687e-05
5.55991e-05
5.37166e-05
5.1028e-05
4.72684e-05
4.57981e-05
4.78217e-05
4.40864e-05
4.54781e-05
7.66684e-05
7.84977e-05
7.91041e-05
7.95963e-05
7.94323e-05
7.89636e-05
7.91429e-05
7.89753e-05
7.98771e-05
8.06896e-05
8.11743e-05
8.14716e-05
8.21432e-05
8.26435e-05
8.32984e-05
8.42431e-05
8.43371e-05
8.52125e-05
8.56435e-05
8.66094e-05
8.70492e-05
8.8098e-05
8.85601e-05
8.88073e-05
8.94339e-05
9.00377e-05
9.01801e-05
9.06946e-05
9.08674e-05
9.10735e-05
9.26647e-05
9.35964e-05
9.38009e-05
9.43474e-05
9.46909e-05
9.55674e-05
9.73375e-05
9.97043e-05
0.000101197
0.00010169
0.000102546
0.000105017
0.000106676
0.000106962
0.000107387
0.000108663
0.000109037
0.000107321
0.000105968
0.000105094
0.000103728
0.000101516
9.79193e-05
9.28963e-05
8.70338e-05
8.2267e-05
7.75616e-05
7.29577e-05
6.91853e-05
6.53253e-05
6.06059e-05
5.65818e-05
5.33461e-05
5.04344e-05
4.7363e-05
4.66899e-05
4.73085e-05
4.40045e-05
4.76207e-05
7.1212e-05
7.29853e-05
7.3569e-05
7.41354e-05
7.46158e-05
7.48759e-05
7.50925e-05
7.52127e-05
7.54788e-05
7.59747e-05
7.65432e-05
7.70867e-05
7.76719e-05
7.82274e-05
7.88091e-05
7.95174e-05
8.0163e-05
8.09079e-05
8.15719e-05
8.23373e-05
8.31139e-05
8.39346e-05
8.46042e-05
8.51671e-05
8.58042e-05
8.65687e-05
8.73006e-05
8.78992e-05
8.85756e-05
8.93447e-05
9.02109e-05
9.11647e-05
9.19485e-05
9.25687e-05
9.32578e-05
9.40381e-05
9.54754e-05
9.727e-05
9.84914e-05
9.94216e-05
0.000100308
0.000101482
0.000102366
0.000102552
0.000102643
0.000102647
0.000102052
0.000100596
9.90168e-05
9.73777e-05
9.52284e-05
9.2405e-05
8.88548e-05
8.46213e-05
8.00601e-05
7.58059e-05
7.16071e-05
6.76185e-05
6.39213e-05
6.036e-05
5.66505e-05
5.30122e-05
5.00718e-05
4.74361e-05
4.53372e-05
4.4779e-05
4.52748e-05
4.24975e-05
4.72982e-05
6.65877e-05
6.79066e-05
6.82868e-05
6.87356e-05
6.9266e-05
6.97628e-05
7.01936e-05
7.05698e-05
7.08963e-05
7.12487e-05
7.16651e-05
7.21393e-05
7.2659e-05
7.32072e-05
7.37748e-05
7.43759e-05
7.50344e-05
7.57201e-05
7.64448e-05
7.71767e-05
7.79272e-05
7.86668e-05
7.93907e-05
8.00949e-05
8.08122e-05
8.15455e-05
8.2281e-05
8.29935e-05
8.37205e-05
8.4505e-05
8.53448e-05
8.62054e-05
8.70122e-05
8.77557e-05
8.84843e-05
8.91758e-05
9.02736e-05
9.1597e-05
9.25786e-05
9.33857e-05
9.40813e-05
9.47371e-05
9.5228e-05
9.53924e-05
9.53095e-05
9.49904e-05
9.42961e-05
9.31415e-05
9.16949e-05
9.00041e-05
8.79244e-05
8.53568e-05
8.22759e-05
7.87472e-05
7.49711e-05
7.12038e-05
6.74982e-05
6.39234e-05
6.05115e-05
5.72277e-05
5.3936e-05
5.08222e-05
4.81922e-05
4.58946e-05
4.4351e-05
4.40413e-05
4.41897e-05
4.13367e-05
4.74026e-05
6.22438e-05
6.33489e-05
6.35524e-05
6.3842e-05
6.42541e-05
6.47164e-05
6.51976e-05
6.56693e-05
6.61018e-05
6.65027e-05
6.69029e-05
6.73277e-05
6.77883e-05
6.82853e-05
6.88131e-05
6.93695e-05
6.99646e-05
7.05945e-05
7.12627e-05
7.19561e-05
7.26677e-05
7.33879e-05
7.41135e-05
7.48384e-05
7.55677e-05
7.63055e-05
7.70481e-05
7.77918e-05
7.85394e-05
7.92961e-05
8.00676e-05
8.08423e-05
8.15991e-05
8.23288e-05
8.29893e-05
8.35887e-05
8.45319e-05
8.56417e-05
8.64475e-05
8.7108e-05
8.76486e-05
8.80829e-05
8.83692e-05
8.84316e-05
8.82573e-05
8.7854e-05
8.71744e-05
8.6167e-05
8.48592e-05
8.32752e-05
8.13655e-05
7.90745e-05
7.63897e-05
7.33659e-05
7.01285e-05
6.68327e-05
6.35572e-05
6.03633e-05
5.72689e-05
5.42817e-05
5.1341e-05
4.86268e-05
4.63088e-05
4.43761e-05
4.32758e-05
4.30274e-05
4.28059e-05
4.00482e-05
4.78529e-05
5.79856e-05
5.90927e-05
5.92728e-05
5.94877e-05
5.9804e-05
6.01822e-05
6.06159e-05
6.10796e-05
6.15433e-05
6.1994e-05
6.24351e-05
6.28763e-05
6.33283e-05
6.37988e-05
6.42918e-05
6.48102e-05
6.53572e-05
6.5935e-05
6.65435e-05
6.71808e-05
6.78421e-05
6.85217e-05
6.92142e-05
6.99151e-05
7.06234e-05
7.13402e-05
7.20631e-05
7.27885e-05
7.35148e-05
7.42414e-05
7.49666e-05
7.56842e-05
7.63869e-05
7.70669e-05
7.7666e-05
7.8221e-05
7.90614e-05
7.99961e-05
8.06587e-05
8.12036e-05
8.16415e-05
8.1965e-05
8.21493e-05
8.21566e-05
8.1964e-05
8.15603e-05
8.09203e-05
8.00135e-05
7.8834e-05
7.73859e-05
7.56505e-05
7.36043e-05
7.12494e-05
6.8631e-05
6.58294e-05
6.2945e-05
6.00457e-05
5.7186e-05
5.43913e-05
5.16691e-05
4.90439e-05
4.66784e-05
4.47061e-05
4.31239e-05
4.23187e-05
4.20084e-05
4.14126e-05
3.92776e-05
4.89185e-05
5.38293e-05
5.49776e-05
5.52223e-05
5.54534e-05
5.57417e-05
5.60658e-05
5.64389e-05
5.68525e-05
5.72886e-05
5.7736e-05
5.81901e-05
5.86488e-05
5.91124e-05
5.95833e-05
6.0065e-05
6.05617e-05
6.10771e-05
6.16142e-05
6.21746e-05
6.27589e-05
6.33657e-05
6.39924e-05
6.46359e-05
6.52932e-05
6.59618e-05
6.66398e-05
6.73245e-05
6.80134e-05
6.87034e-05
6.93918e-05
7.00743e-05
7.07448e-05
7.1401e-05
7.20342e-05
7.25834e-05
7.31175e-05
7.38871e-05
7.46883e-05
7.52556e-05
7.57274e-05
7.6103e-05
7.6369e-05
7.6507e-05
7.64923e-05
7.63036e-05
7.5923e-05
7.53311e-05
7.45094e-05
7.34456e-05
7.21337e-05
7.05667e-05
6.874e-05
6.66647e-05
6.43749e-05
6.19298e-05
5.93949e-05
5.68243e-05
5.42662e-05
5.17492e-05
4.92869e-05
4.69809e-05
4.49478e-05
4.33054e-05
4.19643e-05
4.13356e-05
4.08117e-05
4.01464e-05
3.929e-05
5.12509e-05
4.98669e-05
5.1004e-05
5.13102e-05
5.15914e-05
5.1903e-05
5.22219e-05
5.25656e-05
5.29362e-05
5.33275e-05
5.37377e-05
5.4167e-05
5.46134e-05
5.50735e-05
5.55442e-05
5.60246e-05
5.65152e-05
5.70177e-05
5.75344e-05
5.80669e-05
5.86165e-05
5.91837e-05
5.97681e-05
6.03685e-05
6.09834e-05
6.16107e-05
6.22482e-05
6.28934e-05
6.35435e-05
6.4195e-05
6.48442e-05
6.54859e-05
6.61155e-05
6.67326e-05
6.73251e-05
6.78327e-05
6.83598e-05
6.90834e-05
6.97864e-05
7.0293e-05
7.07194e-05
7.10579e-05
7.12948e-05
7.14138e-05
7.13951e-05
7.12203e-05
7.08717e-05
7.03323e-05
6.95872e-05
6.8626e-05
6.74418e-05
6.60318e-05
6.44003e-05
6.25634e-05
6.0547e-05
5.84007e-05
5.61633e-05
5.38854e-05
5.16026e-05
4.93465e-05
4.7152e-05
4.51679e-05
4.34242e-05
4.20581e-05
4.0834e-05
4.03644e-05
3.96444e-05
3.96235e-05
4.02218e-05
5.88208e-05
4.62044e-05
4.72719e-05
4.75914e-05
4.79009e-05
4.82411e-05
4.85803e-05
4.89281e-05
4.9286e-05
4.96514e-05
5.00281e-05
5.04223e-05
5.0837e-05
5.12718e-05
5.17242e-05
5.21915e-05
5.26721e-05
5.31654e-05
5.36711e-05
5.41897e-05
5.47215e-05
5.52667e-05
5.58253e-05
5.63969e-05
5.69808e-05
5.75755e-05
5.81795e-05
5.87906e-05
5.94063e-05
6.00232e-05
6.06378e-05
6.1245e-05
6.18414e-05
6.24269e-05
6.29858e-05
6.34637e-05
6.39942e-05
6.46833e-05
6.53081e-05
6.57738e-05
6.61694e-05
6.64836e-05
6.67035e-05
6.68133e-05
6.67965e-05
6.66369e-05
6.63189e-05
6.58282e-05
6.51519e-05
6.42828e-05
6.32176e-05
6.19552e-05
6.05047e-05
5.88801e-05
5.71066e-05
5.52229e-05
5.32486e-05
5.12398e-05
4.9208e-05
4.72051e-05
4.52799e-05
4.35891e-05
4.2067e-05
4.09038e-05
3.97352e-05
3.95306e-05
3.88916e-05
4.02239e-05
4.34338e-05
5.87104e-05
4.28749e-05
4.38491e-05
4.41421e-05
4.44408e-05
4.47818e-05
4.51296e-05
4.54863e-05
4.58481e-05
4.62092e-05
4.65725e-05
4.6945e-05
4.73326e-05
4.7738e-05
4.81616e-05
4.86028e-05
4.90608e-05
4.95347e-05
5.00236e-05
5.05269e-05
5.10437e-05
5.15734e-05
5.21154e-05
5.26687e-05
5.32326e-05
5.38059e-05
5.43869e-05
5.49738e-05
5.55644e-05
5.61557e-05
5.67443e-05
5.73258e-05
5.78979e-05
5.84594e-05
5.89902e-05
5.94499e-05
5.99926e-05
6.06486e-05
6.12057e-05
6.16421e-05
6.20132e-05
6.23073e-05
6.25124e-05
6.2614e-05
6.25987e-05
6.24532e-05
6.21646e-05
6.17226e-05
6.11164e-05
6.03412e-05
5.93955e-05
5.82807e-05
5.70087e-05
5.55862e-05
5.40433e-05
5.23985e-05
5.06689e-05
4.89062e-05
4.71029e-05
4.53427e-05
4.36647e-05
4.22126e-05
4.08518e-05
3.98592e-05
3.88136e-05
3.91103e-05
3.90461e-05
4.28643e-05
4.95412e-05
5.19629e-05
3.98452e-05
4.07363e-05
4.09945e-05
4.1263e-05
4.15799e-05
4.19124e-05
4.22609e-05
4.2619e-05
4.2978e-05
4.33373e-05
4.37012e-05
4.40743e-05
4.44599e-05
4.48597e-05
4.52746e-05
4.57055e-05
4.61528e-05
4.66164e-05
4.7096e-05
4.75909e-05
4.81e-05
4.86225e-05
4.9157e-05
4.97025e-05
5.02574e-05
5.082e-05
5.13883e-05
5.196e-05
5.25324e-05
5.31019e-05
5.36646e-05
5.42189e-05
5.47625e-05
5.52701e-05
5.57158e-05
5.62712e-05
5.68969e-05
5.73918e-05
5.78029e-05
5.81521e-05
5.84294e-05
5.8624e-05
5.87239e-05
5.87191e-05
5.85987e-05
5.83526e-05
5.79724e-05
5.74498e-05
5.67818e-05
5.59658e-05
5.50064e-05
5.39153e-05
5.26918e-05
5.13715e-05
4.9942e-05
4.8441e-05
4.68905e-05
4.52938e-05
4.37536e-05
4.22901e-05
4.10372e-05
3.98443e-05
3.90675e-05
3.83677e-05
3.95744e-05
4.09904e-05
4.85451e-05
5.4796e-05
4.1194e-05
3.70447e-05
3.78725e-05
3.81077e-05
3.83499e-05
3.86385e-05
3.89451e-05
3.92713e-05
3.96119e-05
3.99584e-05
4.03084e-05
4.0664e-05
4.10277e-05
4.14012e-05
4.17855e-05
4.21816e-05
4.25905e-05
4.30134e-05
4.34511e-05
4.39039e-05
4.43719e-05
4.48547e-05
4.53516e-05
4.58615e-05
4.63833e-05
4.69154e-05
4.74562e-05
4.80036e-05
4.85552e-05
4.91081e-05
4.96587e-05
5.02038e-05
5.07416e-05
5.12679e-05
5.17553e-05
5.22005e-05
5.27602e-05
5.33512e-05
5.38048e-05
5.4201e-05
5.45414e-05
5.48171e-05
5.50192e-05
5.51378e-05
5.51652e-05
5.5091e-05
5.49075e-05
5.46066e-05
5.41821e-05
5.36333e-05
5.29559e-05
5.21588e-05
5.12458e-05
5.02161e-05
4.90987e-05
4.78571e-05
4.65585e-05
4.51791e-05
4.37764e-05
4.24375e-05
4.11933e-05
4.01629e-05
3.92215e-05
3.8754e-05
3.89384e-05
4.16996e-05
4.58303e-05
5.31219e-05
4.65396e-05
4.25589e-05
3.44419e-05
3.52177e-05
3.54404e-05
3.56667e-05
3.59348e-05
3.6219e-05
3.6522e-05
3.68404e-05
3.71674e-05
3.7501e-05
3.78427e-05
3.81943e-05
3.85562e-05
3.89285e-05
3.93112e-05
3.9705e-05
4.01105e-05
4.05286e-05
4.09599e-05
4.14048e-05
4.18633e-05
4.23354e-05
4.28203e-05
4.33174e-05
4.38253e-05
4.43426e-05
4.48674e-05
4.53975e-05
4.59301e-05
4.64618e-05
4.69901e-05
4.75131e-05
4.80246e-05
4.84952e-05
4.89588e-05
4.95208e-05
5.00729e-05
5.05124e-05
5.09092e-05
5.12575e-05
5.15491e-05
5.17766e-05
5.19306e-05
5.20054e-05
5.19898e-05
5.18801e-05
5.16669e-05
5.13487e-05
5.09245e-05
5.03893e-05
4.97542e-05
4.90065e-05
4.8155e-05
4.72025e-05
4.61225e-05
4.49915e-05
4.37678e-05
4.25792e-05
4.14777e-05
4.05235e-05
3.97899e-05
3.91653e-05
3.93629e-05
4.13632e-05
4.63704e-05
5.00526e-05
4.50019e-05
3.52379e-05
4.37946e-05
3.20232e-05
3.27502e-05
3.29635e-05
3.31792e-05
3.34333e-05
3.37018e-05
3.3987e-05
3.42866e-05
3.4595e-05
3.4911e-05
3.52363e-05
3.55727e-05
3.59207e-05
3.62802e-05
3.66507e-05
3.70322e-05
3.74251e-05
3.78297e-05
3.82464e-05
3.86757e-05
3.91175e-05
3.95719e-05
4.00385e-05
4.05168e-05
4.10059e-05
4.15047e-05
4.20116e-05
4.25247e-05
4.30414e-05
4.35591e-05
4.40757e-05
4.45892e-05
4.5091e-05
4.55551e-05
4.60486e-05
4.66142e-05
4.71359e-05
4.75802e-05
4.79889e-05
4.83557e-05
4.86722e-05
4.89334e-05
4.91295e-05
4.92583e-05
4.93071e-05
4.92779e-05
4.91583e-05
4.89525e-05
4.86536e-05
4.82578e-05
4.777e-05
4.71639e-05
4.64614e-05
4.56349e-05
4.47105e-05
4.37398e-05
4.27339e-05
4.18445e-05
4.10749e-05
4.04915e-05
4.00545e-05
3.99602e-05
4.1811e-05
4.62732e-05
4.70582e-05
4.17837e-05
3.39831e-05
3.49666e-05
3.97274e-05
2.97947e-05
3.04749e-05
3.06786e-05
3.08844e-05
3.11266e-05
3.13826e-05
3.16541e-05
3.19393e-05
3.22331e-05
3.25345e-05
3.28454e-05
3.31677e-05
3.35022e-05
3.3849e-05
3.42077e-05
3.45782e-05
3.49607e-05
3.53553e-05
3.57623e-05
3.61816e-05
3.66134e-05
3.70574e-05
3.75135e-05
3.7981e-05
3.84594e-05
3.89477e-05
3.94446e-05
3.99485e-05
4.04571e-05
4.09685e-05
4.1481e-05
4.19919e-05
4.24889e-05
4.29556e-05
4.34847e-05
4.40537e-05
4.45499e-05
4.50069e-05
4.5433e-05
4.58244e-05
4.6172e-05
4.64743e-05
4.67192e-05
4.69096e-05
4.7029e-05
4.70866e-05
4.70625e-05
4.69686e-05
4.67851e-05
4.65131e-05
4.61439e-05
4.56555e-05
4.50803e-05
4.43872e-05
4.36694e-05
4.29387e-05
4.23063e-05
4.18053e-05
4.14082e-05
4.11442e-05
4.10234e-05
4.23924e-05
4.65816e-05
4.29566e-05
3.83555e-05
3.15024e-05
3.23852e-05
3.46882e-05
3.56278e-05
2.7734e-05
2.83712e-05
2.8566e-05
2.87624e-05
2.89932e-05
2.92374e-05
2.94965e-05
2.9769e-05
3.00502e-05
3.03392e-05
3.06377e-05
3.09475e-05
3.12697e-05
3.16045e-05
3.19517e-05
3.23113e-05
3.26836e-05
3.30688e-05
3.34668e-05
3.38779e-05
3.4302e-05
3.47388e-05
3.5188e-05
3.56494e-05
3.61221e-05
3.66054e-05
3.70982e-05
3.75991e-05
3.81062e-05
3.86185e-05
3.91339e-05
3.96498e-05
4.01495e-05
4.06386e-05
4.12006e-05
4.17729e-05
4.22727e-05
4.27539e-05
4.32076e-05
4.36328e-05
4.40188e-05
4.43692e-05
4.46678e-05
4.49254e-05
4.51171e-05
4.52635e-05
4.53293e-05
4.53393e-05
4.52521e-05
4.50864e-05
4.48179e-05
4.44601e-05
4.40502e-05
4.35952e-05
4.32141e-05
4.2889e-05
4.272e-05
4.25045e-05
4.23524e-05
4.22808e-05
4.31228e-05
4.44323e-05
3.91572e-05
3.39278e-05
2.86611e-05
2.92031e-05
3.12948e-05
3.12331e-05
3.28034e-05
2.58507e-05
2.64487e-05
2.66362e-05
2.68245e-05
2.70449e-05
2.72781e-05
2.75256e-05
2.77861e-05
2.80555e-05
2.83329e-05
2.86199e-05
2.89183e-05
2.92291e-05
2.95526e-05
2.98888e-05
3.0238e-05
3.06004e-05
3.09762e-05
3.13657e-05
3.1769e-05
3.21861e-05
3.2617e-05
3.30614e-05
3.35191e-05
3.39894e-05
3.44719e-05
3.49654e-05
3.54688e-05
3.59804e-05
3.64995e-05
3.70236e-05
3.7549e-05
3.80581e-05
3.85897e-05
3.91725e-05
3.97331e-05
4.02534e-05
4.07618e-05
4.12491e-05
4.17162e-05
4.21502e-05
4.25587e-05
4.29199e-05
4.32524e-05
4.35195e-05
4.37547e-05
4.39015e-05
4.40069e-05
4.40049e-05
4.39602e-05
4.38338e-05
4.3708e-05
4.35987e-05
4.35596e-05
4.36341e-05
4.37158e-05
4.37074e-05
4.34408e-05
4.33809e-05
4.36462e-05
4.02531e-05
3.48652e-05
2.97582e-05
2.53945e-05
2.66906e-05
2.70329e-05
2.78782e-05
2.83095e-05
3.11855e-05
2.41157e-05
2.46776e-05
2.48588e-05
2.50401e-05
2.52512e-05
2.54746e-05
2.57115e-05
2.59609e-05
2.62193e-05
2.64857e-05
2.67617e-05
2.70489e-05
2.73483e-05
2.76605e-05
2.79856e-05
2.83238e-05
2.86754e-05
2.9041e-05
2.94207e-05
2.9815e-05
3.02239e-05
3.06477e-05
3.10862e-05
3.15394e-05
3.2007e-05
3.24886e-05
3.29834e-05
3.34908e-05
3.40099e-05
3.45399e-05
3.50788e-05
3.56188e-05
3.61518e-05
3.67377e-05
3.7353e-05
3.79315e-05
3.84958e-05
3.90497e-05
3.95847e-05
4.01025e-05
4.05905e-05
4.10578e-05
4.14815e-05
4.18821e-05
4.2219e-05
4.253e-05
4.27554e-05
4.29655e-05
4.3099e-05
4.32688e-05
4.34315e-05
4.37061e-05
4.40367e-05
4.4412e-05
4.46927e-05
4.45985e-05
4.41352e-05
4.36811e-05
4.18375e-05
3.5811e-05
3.01812e-05
2.55706e-05
2.24338e-05
2.40004e-05
2.37945e-05
2.43802e-05
2.4883e-05
2.68039e-05
2.94452e-05
2.25665e-05
2.30942e-05
2.32692e-05
2.3444e-05
2.36469e-05
2.38614e-05
2.40888e-05
2.43284e-05
2.4577e-05
2.48337e-05
2.50998e-05
2.53771e-05
2.56667e-05
2.59689e-05
2.62843e-05
2.6613e-05
2.69557e-05
2.73127e-05
2.76848e-05
2.80723e-05
2.84756e-05
2.88952e-05
2.93313e-05
2.9784e-05
3.02533e-05
3.07392e-05
3.12408e-05
3.17579e-05
3.22894e-05
3.28344e-05
3.33907e-05
3.39477e-05
3.45201e-05
3.51405e-05
3.57587e-05
3.6355e-05
3.69523e-05
3.75455e-05
3.81289e-05
3.87e-05
3.92509e-05
3.97814e-05
4.02788e-05
4.07471e-05
4.11723e-05
4.15747e-05
4.19507e-05
4.23528e-05
4.27855e-05
4.33157e-05
4.39075e-05
4.45395e-05
4.50335e-05
4.51462e-05
4.47379e-05
4.36526e-05
4.15526e-05
3.66787e-05
3.07504e-05
2.56755e-05
2.12915e-05
1.9936e-05
2.08813e-05
2.07135e-05
2.11587e-05
2.15817e-05
2.24157e-05
2.42012e-05
2.82458e-05
2.11407e-05
2.16374e-05
2.18068e-05
2.19754e-05
2.217e-05
2.23759e-05
2.25942e-05
2.28244e-05
2.30635e-05
2.33107e-05
2.35672e-05
2.38346e-05
2.4114e-05
2.44061e-05
2.47112e-05
2.50298e-05
2.53625e-05
2.57101e-05
2.60731e-05
2.64524e-05
2.68485e-05
2.72621e-05
2.76935e-05
2.81435e-05
2.86124e-05
2.91007e-05
2.96085e-05
3.01364e-05
3.06838e-05
3.12507e-05
3.1831e-05
3.24188e-05
3.30578e-05
3.37343e-05
3.43969e-05
3.50599e-05
3.57234e-05
3.63785e-05
3.70259e-05
3.76526e-05
3.82664e-05
3.88491e-05
3.94233e-05
3.99683e-05
4.05421e-05
4.11175e-05
4.17935e-05
4.24992e-05
4.33245e-05
4.40937e-05
4.47286e-05
4.49224e-05
4.44528e-05
4.32555e-05
4.15153e-05
3.5748e-05
3.10747e-05
2.54241e-05
2.12237e-05
1.73993e-05
1.71775e-05
1.80797e-05
1.72013e-05
1.71344e-05
1.78531e-05
2.016e-05
2.30888e-05
2.61972e-05
2.99046e-05
1.99382e-05
2.04045e-05
2.05673e-05
2.07299e-05
2.09169e-05
2.11148e-05
2.13247e-05
2.15466e-05
2.17775e-05
2.20169e-05
2.22657e-05
2.25255e-05
2.27975e-05
2.30823e-05
2.33804e-05
2.36925e-05
2.40192e-05
2.43615e-05
2.47203e-05
2.50966e-05
2.54913e-05
2.59053e-05
2.63394e-05
2.67944e-05
2.72707e-05
2.77686e-05
2.82887e-05
2.88309e-05
2.93956e-05
2.99825e-05
3.05829e-05
3.12103e-05
3.18822e-05
3.25592e-05
3.32424e-05
3.39394e-05
3.46528e-05
3.53631e-05
3.60859e-05
3.67875e-05
3.75073e-05
3.82033e-05
3.89532e-05
3.97007e-05
4.05639e-05
4.14162e-05
4.23941e-05
4.3175e-05
4.38527e-05
4.38835e-05
4.32344e-05
4.19484e-05
3.96671e-05
3.44677e-05
2.94933e-05
2.47922e-05
2.03193e-05
1.68955e-05
1.41028e-05
1.43933e-05
1.59006e-05
1.65234e-05
1.66582e-05
1.70609e-05
1.80679e-05
2.04061e-05
2.29801e-05
2.43722e-05
2.69711e-05
1.88017e-05
1.92449e-05
1.94047e-05
1.95618e-05
1.97412e-05
1.9931e-05
2.01322e-05
2.03447e-05
2.05661e-05
2.07959e-05
2.1035e-05
2.12851e-05
2.15472e-05
2.18222e-05
2.21107e-05
2.24134e-05
2.2731e-05
2.30647e-05
2.34154e-05
2.37845e-05
2.41733e-05
2.45832e-05
2.50161e-05
2.54735e-05
2.59574e-05
2.64689e-05
2.70105e-05
2.75814e-05
2.81851e-05
2.8812e-05
2.94705e-05
3.019e-05
3.09553e-05
3.17218e-05
3.2515e-05
3.33093e-05
3.41285e-05
3.49361e-05
3.57851e-05
3.66149e-05
3.75186e-05
3.84089e-05
3.93977e-05
4.03342e-05
4.12773e-05
4.1961e-05
4.23706e-05
4.21183e-05
4.13097e-05
3.94789e-05
3.63652e-05
3.1757e-05
2.64629e-05
2.27117e-05
1.83806e-05
1.55155e-05
1.29209e-05
1.13888e-05
1.18198e-05
1.30236e-05
1.49392e-05
1.60156e-05
1.62716e-05
1.80795e-05
1.96143e-05
1.97724e-05
1.91801e-05
2.03996e-05
2.47152e-05
1.79992e-05
1.84153e-05
1.85687e-05
1.87228e-05
1.88977e-05
1.90821e-05
1.92777e-05
1.94846e-05
1.97006e-05
1.9925e-05
2.01588e-05
2.04036e-05
2.06605e-05
2.09306e-05
2.12147e-05
2.15137e-05
2.18287e-05
2.21607e-05
2.2511e-05
2.28805e-05
2.32705e-05
2.36819e-05
2.41163e-05
2.45746e-05
2.50602e-05
2.55734e-05
2.612e-05
2.66977e-05
2.73142e-05
2.79552e-05
2.86493e-05
2.93756e-05
3.01426e-05
3.09374e-05
3.17962e-05
3.26793e-05
3.36393e-05
3.46159e-05
3.56918e-05
3.67332e-05
3.78472e-05
3.87888e-05
3.96411e-05
4.00367e-05
4.00226e-05
3.93792e-05
3.80634e-05
3.5955e-05
3.17614e-05
2.69696e-05
2.26547e-05
1.9271e-05
1.54471e-05
1.30246e-05
1.11235e-05
9.62686e-06
8.84427e-06
9.20178e-06
1.04131e-05
1.24658e-05
1.3984e-05
1.52848e-05
1.67065e-05
1.75411e-05
1.60874e-05
1.53336e-05
1.65987e-05
1.87908e-05
2.42981e-05
1.71108e-05
1.75121e-05
1.76642e-05
1.78108e-05
1.79762e-05
1.81515e-05
1.83378e-05
1.85353e-05
1.87419e-05
1.89571e-05
1.91819e-05
1.94176e-05
1.96656e-05
1.99269e-05
2.02025e-05
2.04937e-05
2.08019e-05
2.1129e-05
2.14775e-05
2.185e-05
2.22487e-05
2.26749e-05
2.31313e-05
2.36189e-05
2.41415e-05
2.46972e-05
2.5298e-05
2.59334e-05
2.66172e-05
2.73593e-05
2.82028e-05
2.90843e-05
3.00486e-05
3.105e-05
3.21304e-05
3.32211e-05
3.43496e-05
3.54037e-05
3.6377e-05
3.7037e-05
3.74245e-05
3.72492e-05
3.6644e-05
3.54522e-05
3.37199e-05
2.96712e-05
2.53578e-05
2.16305e-05
1.81202e-05
1.50145e-05
1.24216e-05
1.05428e-05
8.55268e-06
7.52426e-06
6.94024e-06
6.61605e-06
6.98545e-06
8.07136e-06
9.42702e-06
1.14499e-05
1.35086e-05
1.46624e-05
1.5359e-05
1.32918e-05
1.18305e-05
1.21087e-05
1.42165e-05
1.91548e-05
2.544e-05
1.69838e-05
1.73581e-05
1.75038e-05
1.76523e-05
1.78175e-05
1.79895e-05
1.81718e-05
1.83652e-05
1.85679e-05
1.87793e-05
1.90004e-05
1.92325e-05
1.9477e-05
1.97348e-05
2.00066e-05
2.0293e-05
2.05947e-05
2.09128e-05
2.12478e-05
2.16032e-05
2.1982e-05
2.23902e-05
2.2834e-05
2.3319e-05
2.38512e-05
2.4433e-05
2.50787e-05
2.57783e-05
2.65484e-05
2.73644e-05
2.82544e-05
2.91802e-05
3.01794e-05
3.11547e-05
3.21071e-05
3.29236e-05
3.3521e-05
3.38271e-05
3.37278e-05
3.32421e-05
3.23416e-05
2.86962e-05
2.53484e-05
2.16509e-05
1.83885e-05
1.56463e-05
1.31313e-05
1.10477e-05
9.33422e-06
7.90391e-06
6.86983e-06
6.09661e-06
5.20916e-06
4.96094e-06
5.2657e-06
5.6196e-06
6.17141e-06
7.5043e-06
8.3954e-06
9.19314e-06
1.01129e-05
1.14146e-05
1.04933e-05
8.89129e-06
7.75498e-06
8.54048e-06
1.02441e-05
1.53824e-05
2.30591e-05
1.62688e-05
1.6664e-05
1.68244e-05
1.69743e-05
1.71423e-05
1.73223e-05
1.75144e-05
1.77184e-05
1.79326e-05
1.81572e-05
1.83938e-05
1.86447e-05
1.89119e-05
1.91978e-05
1.95046e-05
1.98357e-05
2.01933e-05
2.05817e-05
2.10024e-05
2.14603e-05
2.19509e-05
2.24858e-05
2.30718e-05
2.37189e-05
2.44164e-05
2.51523e-05
2.59271e-05
2.67446e-05
2.76019e-05
2.84307e-05
2.91962e-05
2.98581e-05
3.04122e-05
3.07976e-05
3.10094e-05
2.90137e-05
2.62817e-05
2.37252e-05
2.08603e-05
1.83702e-05
1.58806e-05
1.36034e-05
1.17321e-05
1.00015e-05
8.69905e-06
7.57614e-06
6.60581e-06
5.82174e-06
5.23345e-06
4.70339e-06
4.09044e-06
3.88663e-06
3.77998e-06
3.74223e-06
4.01565e-06
4.03873e-06
4.1673e-06
3.80516e-06
4.0016e-06
4.28815e-06
4.76289e-06
5.43655e-06
5.50042e-06
4.90228e-06
4.32214e-06
4.65216e-06
5.89629e-06
1.10974e-05
2.19967e-05
1.85656e-05
1.89471e-05
1.91133e-05
1.92871e-05
1.94722e-05
1.96624e-05
1.98666e-05
2.00855e-05
2.03217e-05
2.05674e-05
2.08267e-05
2.11018e-05
2.13954e-05
2.17096e-05
2.20465e-05
2.24076e-05
2.27959e-05
2.32088e-05
2.3649e-05
2.41194e-05
2.46337e-05
2.51883e-05
2.5669e-05
2.53522e-05
2.4712e-05
2.4043e-05
2.31888e-05
2.21549e-05
2.103e-05
1.97711e-05
1.8449e-05
1.69913e-05
1.55853e-05
1.41934e-05
1.28218e-05
1.15762e-05
1.0377e-05
9.28528e-06
8.36649e-06
7.57145e-06
6.73577e-06
6.08264e-06
5.59399e-06
5.07851e-06
4.66513e-06
4.24649e-06
3.83008e-06
3.53589e-06
3.30111e-06
3.05954e-06
2.76483e-06
2.49706e-06
2.23984e-06
1.93856e-06
1.60505e-06
1.36879e-06
1.16732e-06
1.03564e-06
1.13008e-06
1.43479e-06
1.88952e-06
2.30207e-06
2.66296e-06
2.12555e-06
1.60112e-06
2.09403e-06
3.66746e-06
8.20528e-06
1.84272e-05
9.14241e-06
9.00267e-06
8.86761e-06
8.73767e-06
8.61227e-06
8.4917e-06
8.37522e-06
8.26291e-06
8.1544e-06
8.04894e-06
7.94703e-06
7.84659e-06
7.7494e-06
7.65078e-06
7.5619e-06
7.43985e-06
7.33789e-06
7.2403e-06
7.14107e-06
7.03363e-06
6.93962e-06
6.83057e-06
6.73224e-06
6.61308e-06
6.51367e-06
6.39679e-06
6.3106e-06
6.23096e-06
6.15573e-06
6.09324e-06
6.0209e-06
5.94974e-06
5.88998e-06
5.78179e-06
5.69556e-06
5.56467e-06
5.35632e-06
5.10974e-06
4.86193e-06
4.61617e-06
4.35461e-06
3.98549e-06
3.55308e-06
3.18384e-06
2.81158e-06
2.39309e-06
1.9616e-06
1.50768e-06
1.08583e-06
7.75744e-07
5.61206e-07
4.16991e-07
3.19373e-07
2.5277e-07
2.11153e-07
1.86783e-07
1.70296e-07
1.81308e-07
2.1009e-07
3.00781e-07
5.17773e-07
7.48364e-07
8.30701e-07
5.44008e-07
2.88098e-07
4.46659e-07
9.48616e-07
2.44236e-06
5.62048e-06
3.18259e-06
3.2991e-06
3.41822e-06
3.53842e-06
3.66104e-06
3.78431e-06
3.90937e-06
4.03507e-06
4.16151e-06
4.2888e-06
4.41585e-06
4.54338e-06
4.67069e-06
4.79702e-06
4.92376e-06
5.04825e-06
5.17271e-06
5.29462e-06
5.41621e-06
5.53412e-06
5.65002e-06
5.76747e-06
5.87989e-06
5.97129e-06
6.05403e-06
6.08834e-06
6.20386e-06
6.25134e-06
6.2373e-06
6.17026e-06
6.07946e-06
5.96634e-06
5.82578e-06
5.65297e-06
5.44441e-06
5.19674e-06
4.90618e-06
4.57151e-06
4.19344e-06
3.7759e-06
3.3272e-06
2.85741e-06
2.38228e-06
1.92261e-06
1.49551e-06
1.10188e-06
7.22878e-07
4.14746e-07
2.07408e-07
9.32692e-08
4.03083e-08
1.81369e-08
9.36278e-09
7.55761e-09
1.02963e-08
1.32527e-08
1.51462e-08
1.61227e-08
1.66855e-08
1.84477e-08
2.52903e-08
4.15793e-08
5.83995e-08
7.3699e-08
1.06675e-07
1.43564e-07
2.72226e-07
5.27193e-07
6.05765e-07
6.42787e-05
6.36933e-05
6.26709e-05
6.31694e-05
6.2814e-05
6.25633e-05
6.25451e-05
6.31643e-05
6.37092e-05
6.29711e-05
6.30917e-05
6.27618e-05
6.20833e-05
6.26986e-05
6.32134e-05
6.58589e-05
6.35323e-05
6.33209e-05
6.44689e-05
6.46985e-05
6.34424e-05
6.35359e-05
6.55937e-05
6.54146e-05
6.65043e-05
6.69033e-05
6.67296e-05
6.61419e-05
6.75109e-05
6.9388e-05
6.90315e-05
6.89356e-05
6.96466e-05
7.11222e-05
7.07283e-05
7.13533e-05
7.24247e-05
7.27112e-05
7.31973e-05
7.6463e-05
7.62865e-05
7.46826e-05
7.6513e-05
7.76997e-05
7.74114e-05
7.76223e-05
7.83956e-05
7.86127e-05
8.03331e-05
8.33531e-05
8.48373e-05
8.52739e-05
8.47546e-05
8.20869e-05
8.0629e-05
8.06423e-05
8.19044e-05
8.3771e-05
8.30944e-05
5.95042e-05
5.85235e-05
5.88606e-05
5.88406e-05
5.88337e-05
5.89099e-05
5.89626e-05
5.90487e-05
5.89288e-05
5.87632e-05
5.86195e-05
5.85513e-05
5.88946e-05
5.92414e-05
6.01309e-05
5.98103e-05
5.87336e-05
5.91618e-05
6.00421e-05
5.97133e-05
5.90237e-05
5.96408e-05
6.07679e-05
6.09673e-05
6.16201e-05
6.16814e-05
6.18711e-05
6.14838e-05
6.26619e-05
6.38847e-05
6.35352e-05
6.37981e-05
6.46406e-05
6.55943e-05
6.56949e-05
6.61295e-05
6.71447e-05
6.75452e-05
6.77654e-05
6.92688e-05
7.0171e-05
6.98367e-05
7.03325e-05
7.14574e-05
7.23113e-05
7.22926e-05
7.28041e-05
7.27097e-05
7.33695e-05
7.51337e-05
7.65654e-05
7.78264e-05
7.84829e-05
7.80848e-05
7.67233e-05
7.63474e-05
7.60383e-05
7.68741e-05
7.63084e-05
5.52569e-05
5.458e-05
5.49474e-05
5.49645e-05
5.50425e-05
5.50632e-05
5.50071e-05
5.48912e-05
5.47625e-05
5.46823e-05
5.47013e-05
5.49027e-05
5.5211e-05
5.54131e-05
5.55003e-05
5.48641e-05
5.4866e-05
5.53408e-05
5.57151e-05
5.52841e-05
5.49812e-05
5.56823e-05
5.63079e-05
5.67088e-05
5.70951e-05
5.70595e-05
5.72824e-05
5.71645e-05
5.80775e-05
5.89693e-05
5.87702e-05
5.92377e-05
5.98773e-05
6.05753e-05
6.08588e-05
6.12887e-05
6.20744e-05
6.2634e-05
6.29494e-05
6.37523e-05
6.48556e-05
6.52485e-05
6.52915e-05
6.58522e-05
6.68907e-05
6.72197e-05
6.76096e-05
6.77268e-05
6.80233e-05
6.88991e-05
6.99733e-05
7.11181e-05
7.20358e-05
7.26164e-05
7.25025e-05
7.22652e-05
7.19579e-05
7.2371e-05
7.13441e-05
5.18517e-05
5.12092e-05
5.15249e-05
5.15139e-05
5.15119e-05
5.14231e-05
5.13336e-05
5.12576e-05
5.12065e-05
5.12269e-05
5.13086e-05
5.147e-05
5.16125e-05
5.15766e-05
5.13751e-05
5.1171e-05
5.14152e-05
5.17114e-05
5.16734e-05
5.13974e-05
5.1439e-05
5.20056e-05
5.2432e-05
5.2823e-05
5.30523e-05
5.30176e-05
5.32059e-05
5.32972e-05
5.404e-05
5.46609e-05
5.46736e-05
5.51493e-05
5.563e-05
5.6178e-05
5.64887e-05
5.6921e-05
5.75394e-05
5.81105e-05
5.85081e-05
5.90755e-05
6.00249e-05
6.07139e-05
6.08486e-05
6.10902e-05
6.18169e-05
6.23831e-05
6.28187e-05
6.30502e-05
6.32546e-05
6.36884e-05
6.43542e-05
6.51807e-05
6.60408e-05
6.68292e-05
6.73566e-05
6.76088e-05
6.76775e-05
6.82346e-05
6.71341e-05
4.86261e-05
4.79888e-05
4.82323e-05
4.81953e-05
4.81417e-05
4.80646e-05
4.80116e-05
4.79646e-05
4.798e-05
4.80375e-05
4.8115e-05
4.8181e-05
4.81398e-05
4.80085e-05
4.78602e-05
4.79076e-05
4.809e-05
4.81492e-05
4.80091e-05
4.79444e-05
4.81489e-05
4.85801e-05
4.8885e-05
4.92023e-05
4.93184e-05
4.93155e-05
4.94992e-05
4.97053e-05
5.0318e-05
5.07607e-05
5.08966e-05
5.13283e-05
5.17337e-05
5.21952e-05
5.25098e-05
5.29248e-05
5.34395e-05
5.39607e-05
5.43632e-05
5.47881e-05
5.5513e-05
5.62637e-05
5.6623e-05
5.67976e-05
5.72303e-05
5.77824e-05
5.8277e-05
5.86169e-05
5.8869e-05
5.91354e-05
5.95215e-05
6.0051e-05
6.06896e-05
6.13731e-05
6.20159e-05
6.25401e-05
6.28991e-05
6.36596e-05
6.27631e-05
4.55614e-05
4.49326e-05
4.51437e-05
4.50751e-05
4.50307e-05
4.49915e-05
4.49388e-05
4.49415e-05
4.49755e-05
4.50036e-05
4.50175e-05
4.49566e-05
4.48543e-05
4.47217e-05
4.47159e-05
4.47853e-05
4.48532e-05
4.4797e-05
4.47161e-05
4.47643e-05
4.50137e-05
4.53138e-05
4.55555e-05
4.57738e-05
4.5823e-05
4.58581e-05
4.60479e-05
4.63042e-05
4.68018e-05
4.71389e-05
4.73248e-05
4.77101e-05
4.80764e-05
4.84768e-05
4.87874e-05
4.91752e-05
4.96184e-05
5.00827e-05
5.04763e-05
5.08197e-05
5.13494e-05
5.20346e-05
5.2547e-05
5.28132e-05
5.31001e-05
5.35171e-05
5.39909e-05
5.44113e-05
5.474e-05
5.50044e-05
5.52819e-05
5.56292e-05
5.60656e-05
5.65761e-05
5.71244e-05
5.76669e-05
5.81258e-05
5.89914e-05
5.83234e-05
4.25689e-05
4.19707e-05
4.21768e-05
4.21234e-05
4.21064e-05
4.2093e-05
4.20799e-05
4.20771e-05
4.2066e-05
4.20355e-05
4.19715e-05
4.18784e-05
4.17963e-05
4.1752e-05
4.17691e-05
4.18092e-05
4.17913e-05
4.17263e-05
4.16887e-05
4.18117e-05
4.20212e-05
4.2251e-05
4.24254e-05
4.25589e-05
4.25813e-05
4.26491e-05
4.28389e-05
4.31054e-05
4.35107e-05
4.37805e-05
4.39822e-05
4.43241e-05
4.46589e-05
4.5006e-05
4.53013e-05
4.56577e-05
4.60459e-05
4.64631e-05
4.68458e-05
4.7161e-05
4.75675e-05
4.81335e-05
4.86817e-05
4.90533e-05
4.9328e-05
4.96393e-05
5.0025e-05
5.04384e-05
5.08198e-05
5.11409e-05
5.14234e-05
5.17081e-05
5.20289e-05
5.24007e-05
5.2818e-05
5.32705e-05
5.36958e-05
5.4547e-05
5.40227e-05
3.98235e-05
3.92775e-05
3.94777e-05
3.94341e-05
3.94188e-05
3.93949e-05
3.93622e-05
3.93233e-05
3.92674e-05
3.91994e-05
3.91208e-05
3.9052e-05
3.90076e-05
3.89994e-05
3.89988e-05
3.89811e-05
3.89318e-05
3.88577e-05
3.88941e-05
3.90326e-05
3.92052e-05
3.93632e-05
3.94792e-05
3.95548e-05
3.95742e-05
3.96654e-05
3.98528e-05
4.01119e-05
4.04397e-05
4.06664e-05
4.08673e-05
4.11697e-05
4.14753e-05