/*--------------------------------*- C++ -*----------------------------------*\
| =========                 |                                                 |
| \\      /  F ield         | OpenFOAM: The Open Source CFD Toolbox           |
|  \\    /   O peration     | Version:  2312                                  |
|   \\  /    A nd           | Website:  www.openfoam.com                      |
|    \\/     M anipulation  |                                                 |
\*---------------------------------------------------------------------------*/
FoamFile
{
    version     2.0;
    format      ascii;
    arch        "LSB;label=32;scalar=64";
    class       volScalarField;
    location    "900";
    object      omega;
}
// * * * * * * * * * * * * * * * * * * * * * * * * * * * * * * * * * * * * * //

dimensions      [0 0 -1 0 0 0 0];

internalField   nonuniform List<scalar> 
76025
(
0.028016
0.0280143
0.0280153
0.028025
0.0280267
0.0280593
0.0280435
0.0280427
0.0280337
0.0280352
0.0280119
0.028016
0.0279962
0.0279878
0.028024
0.0280558
0.0281064
0.0281378
0.0281781
0.0282262
0.028272
0.0283354
0.0283792
0.0284286
0.028489
0.0285386
0.0286118
0.0286764
0.0287522
0.0288428
0.0289286
0.0290009
0.0290849
0.0291749
0.0292697
0.0293578
0.0294558
0.0295454
0.02962
0.0296901
0.029758
0.0298231
0.0298956
0.0299641
0.0300498
0.0301478
0.0302799
0.0304434
0.0306552
0.0309115
0.0312567
0.0316558
0.0321716
0.0327566
0.0335337
0.0343066
0.0352607
0.0363502
0.0376571
0.0391982
0.0408982
0.0429575
0.0452972
0.0485494
0.0515614
0.055438
0.0613332
0.0657707
0.0755831
0.0282906
0.0282921
0.0283021
0.0283145
0.0283408
0.028359
0.0283881
0.0283747
0.0283843
0.0283714
0.0283626
0.0283132
0.0283044
0.0283247
0.0282939
0.0283358
0.0284099
0.0284734
0.0285339
0.0285939
0.028654
0.0287166
0.0287798
0.0288417
0.028907
0.028969
0.0290354
0.0291032
0.0291717
0.0292459
0.0293212
0.0293924
0.0294681
0.0295434
0.0296221
0.0296983
0.0297747
0.0298478
0.0299208
0.0299937
0.0300736
0.0301551
0.0302463
0.0303496
0.0304769
0.030628
0.0308143
0.0310453
0.0313307
0.0316779
0.0320897
0.0325854
0.0331569
0.033847
0.0346317
0.0355659
0.036656
0.0379433
0.0394848
0.0411401
0.0432798
0.0453925
0.0482663
0.0514194
0.0545991
0.0592141
0.0654868
0.0707393
0.0826923
0.0285771
0.028596
0.0286218
0.0286381
0.0286597
0.0286823
0.0287117
0.0287374
0.0287689
0.0287897
0.0288148
0.0288226
0.0288345
0.0288552
0.028869
0.0288894
0.0289226
0.0289615
0.029006
0.0290542
0.0291065
0.0291609
0.0292185
0.0292771
0.0293382
0.0293989
0.0294606
0.029523
0.0295868
0.0296507
0.029717
0.0297816
0.0298487
0.0299169
0.0299889
0.0300621
0.0301386
0.0302144
0.0302967
0.0303839
0.0304836
0.0305935
0.0307204
0.0308659
0.0310421
0.0312483
0.0314982
0.031794
0.0321509
0.0325659
0.0330562
0.033622
0.034285
0.0350547
0.0359517
0.0370084
0.0382284
0.0396889
0.0413242
0.0432119
0.0454268
0.0477445
0.0509181
0.0542525
0.0580077
0.0631547
0.0700705
0.0755954
0.0876937
0.0289721
0.0289268
0.0289403
0.0289644
0.0289928
0.0290228
0.0290575
0.0290927
0.0291337
0.0291739
0.0292171
0.0292563
0.0292931
0.0293302
0.0293658
0.0294001
0.0294357
0.0294728
0.0295125
0.0295544
0.0295997
0.0296469
0.0296972
0.0297491
0.0298036
0.029859
0.0299165
0.0299745
0.0300351
0.0300958
0.0301595
0.0302231
0.0302905
0.0303601
0.0304363
0.0305165
0.0306042
0.0306958
0.0307992
0.0309118
0.0310423
0.0311875
0.0313558
0.0315482
0.0317756
0.0320384
0.0323479
0.0327071
0.0331274
0.0336136
0.0341766
0.0348291
0.0355822
0.0364616
0.0374775
0.0386776
0.0400534
0.0416913
0.0434776
0.0456171
0.0480024
0.0506952
0.0543233
0.0578827
0.0621975
0.0679704
0.0753725
0.0814596
0.0954714
0.0295008
0.0295155
0.0295299
0.0295464
0.029566
0.0295871
0.0296113
0.0296367
0.0296661
0.0296983
0.0297345
0.0297729
0.0298125
0.029853
0.0298939
0.0299343
0.0299749
0.0300153
0.0300566
0.0300983
0.0301418
0.0301861
0.0302327
0.0302803
0.0303307
0.0303819
0.0304363
0.0304917
0.0305509
0.0306115
0.0306771
0.0307442
0.0308178
0.0308955
0.0309833
0.0310781
0.0311845
0.0312986
0.0314289
0.0315724
0.0317386
0.031922
0.0321346
0.0323749
0.0326554
0.0329744
0.0333452
0.0337686
0.0342595
0.0348219
0.0354722
0.0362213
0.0370861
0.0380895
0.0392499
0.040603
0.0421626
0.0439669
0.0459594
0.0483644
0.0509761
0.054177
0.0580992
0.0619697
0.0669421
0.0733283
0.0813346
0.0879458
0.104265
0.0299799
0.0300286
0.0300764
0.0301225
0.0301662
0.0302066
0.030244
0.0302778
0.0303092
0.0303392
0.0303693
0.0304003
0.0304323
0.0304656
0.0305
0.0305352
0.0305714
0.0306081
0.0306462
0.030685
0.030726
0.030768
0.0308132
0.0308597
0.0309103
0.0309626
0.0310198
0.0310791
0.0311442
0.0312119
0.0312871
0.0313653
0.0314527
0.031546
0.0316528
0.0317689
0.0319
0.0320414
0.0322028
0.0323807
0.0325845
0.0328085
0.0330668
0.0333572
0.0336924
0.0340722
0.0345097
0.0350073
0.0355806
0.0362342
0.0369877
0.0378508
0.0388434
0.0399913
0.0413101
0.0428407
0.0446024
0.0465956
0.0488779
0.0515542
0.0545697
0.0582149
0.0625505
0.0667482
0.0725354
0.0796157
0.0882932
0.0958359
0.114365
0.0305612
0.0306051
0.0306564
0.0307129
0.0307719
0.0308312
0.0308888
0.0309426
0.0309919
0.0310363
0.0310765
0.0311135
0.0311481
0.0311813
0.0312139
0.0312462
0.0312792
0.0313127
0.0313479
0.0313842
0.0314233
0.0314641
0.031509
0.031556
0.0316085
0.0316635
0.0317252
0.0317901
0.0318631
0.0319401
0.032027
0.0321186
0.0322224
0.0323341
0.032463
0.0326033
0.0327624
0.0329343
0.0331305
0.0333464
0.0335915
0.0338612
0.0341706
0.0345179
0.0349159
0.0353661
0.0358816
0.0364662
0.0371362
0.0378946
0.0387681
0.0397574
0.0408981
0.0422056
0.0437051
0.0454447
0.0474313
0.0496741
0.0523001
0.0553174
0.0587712
0.0629025
0.0675895
0.0721879
0.0790094
0.0867026
0.0962858
0.105277
0.126494
0.0312569
0.0312891
0.0313289
0.0313769
0.0314316
0.0314918
0.0315556
0.0316206
0.0316847
0.0317465
0.0318045
0.0318586
0.0319085
0.0319549
0.0319982
0.0320392
0.0320791
0.032118
0.0321577
0.0321979
0.0322409
0.0322857
0.0323352
0.0323875
0.0324465
0.032509
0.0325801
0.0326557
0.0327415
0.0328328
0.0329365
0.0330463
0.0331711
0.0333056
0.033461
0.0336293
0.03382
0.0340257
0.03426
0.0345172
0.0348071
0.0351278
0.0354936
0.0359054
0.0363737
0.0369046
0.0375067
0.0381903
0.0389676
0.039845
0.0408547
0.0419866
0.0433018
0.0447919
0.0465072
0.0484983
0.0507409
0.0533057
0.0563253
0.0596975
0.0636662
0.0682013
0.0733149
0.0784661
0.0865633
0.0949317
0.105961
0.116574
0.145769
0.0321455
0.0321705
0.0321997
0.0322345
0.032275
0.0323217
0.0323744
0.0324322
0.0324936
0.0325574
0.0326218
0.0326855
0.0327476
0.0328074
0.0328648
0.0329196
0.0329729
0.0330243
0.0330758
0.0331267
0.0331801
0.0332346
0.0332939
0.0333561
0.0334258
0.0334996
0.0335835
0.0336729
0.0337746
0.0338833
0.0340069
0.0341383
0.0342877
0.0344493
0.0346353
0.0348368
0.035064
0.0353101
0.0355895
0.0358961
0.0362397
0.0366222
0.0370555
0.037544
0.0380944
0.0387198
0.0394206
0.0402202
0.0411196
0.042138
0.0433066
0.0446051
0.0461328
0.047829
0.0498118
0.052088
0.0546173
0.0575839
0.0609762
0.0647735
0.0692302
0.0742117
0.0798613
0.0857811
0.0955475
0.104729
0.118098
0.132254
0.169562
0.0331657
0.0331935
0.0332228
0.0332547
0.033289
0.0333269
0.0333688
0.0334156
0.033467
0.0335232
0.0335833
0.0336467
0.0337125
0.0337798
0.0338485
0.0339175
0.0339877
0.034058
0.0341301
0.0342026
0.0342783
0.0343553
0.0344377
0.0345226
0.0346153
0.034712
0.0348192
0.0349319
0.0350576
0.035191
0.03534
0.0354981
0.0356757
0.0358682
0.0360875
0.0363254
0.0365919
0.036882
0.0372102
0.0375705
0.0379735
0.0384242
0.0389323
0.0395065
0.0401487
0.0408818
0.0416939
0.0426296
0.0436651
0.0448518
0.0461973
0.0476926
0.0494696
0.051393
0.0537053
0.0562682
0.0591475
0.0625455
0.0663321
0.0705927
0.0756026
0.0811345
0.0874857
0.0946575
0.106606
0.1171
0.13501
0.153976
0.204556
0.0344433
0.0344747
0.0345073
0.0345418
0.0345771
0.0346137
0.0346521
0.034693
0.0347369
0.0347847
0.0348366
0.0348926
0.0349531
0.0350171
0.0350855
0.0351568
0.0352325
0.0353108
0.0353937
0.0354792
0.0355702
0.035664
0.0357646
0.035869
0.035982
0.0361003
0.0362298
0.0363665
0.0365171
0.0366778
0.0368553
0.0370452
0.0372565
0.0374878
0.0377487
0.0380334
0.0383503
0.0386982
0.0390895
0.0395187
0.0399991
0.0405354
0.0411388
0.0418167
0.0425723
0.043432
0.0443748
0.0454696
0.0466551
0.048044
0.0495797
0.0513204
0.0533738
0.0555631
0.0582582
0.0611178
0.0644339
0.0683095
0.0725331
0.0773756
0.0830726
0.0893434
0.096692
0.106126
0.120803
0.134463
0.159323
0.185221
0.308479
0.0358799
0.0359193
0.0359595
0.0360018
0.0360445
0.0360881
0.0361327
0.0361787
0.0362267
0.0362771
0.036331
0.0363882
0.0364498
0.0365156
0.0365865
0.036662
0.0367432
0.0368294
0.0369222
0.0370205
0.0371264
0.0372386
0.0373598
0.0374883
0.0376273
0.0377749
0.0379353
0.038106
0.0382919
0.0384912
0.0387081
0.0389415
0.0391979
0.0394805
0.0397945
0.0401382
0.040517
0.0409342
0.0413992
0.0419062
0.0424752
0.0431024
0.0438114
0.0445944
0.0454731
0.0464609
0.0475452
0.0488126
0.0501616
0.0517962
0.0535357
0.0555958
0.0579401
0.060468
0.0636007
0.0668059
0.070698
0.0751002
0.0798711
0.0854867
0.0920912
0.0993714
0.108577
0.121878
0.140411
0.160702
0.194056
0.242974
0.408335
0.0376631
0.0377138
0.0377656
0.0378188
0.0378726
0.0379261
0.0379804
0.0380349
0.0380906
0.0381476
0.0382065
0.0382681
0.0383325
0.0384009
0.0384733
0.038551
0.0386345
0.0387246
0.0388223
0.0389278
0.0390428
0.0391671
0.0393026
0.0394491
0.0396084
0.0397804
0.0399675
0.0401692
0.0403887
0.040626
0.0408834
0.0411626
0.0414682
0.041807
0.0421794
0.0425882
0.043036
0.043529
0.0440747
0.0446649
0.0453328
0.046054
0.0468845
0.047776
0.0488056
0.049935
0.0512044
0.0526833
0.054247
0.0562063
0.0581819
0.0606858
0.0633249
0.0663458
0.0699518
0.073627
0.0782281
0.0832098
0.0887104
0.0954217
0.103263
0.112311
0.125399
0.14486
0.169775
0.200184
0.252922
0.370161
0.47926
0.0396482
0.0397134
0.0397804
0.0398499
0.0399199
0.0399908
0.040062
0.0401348
0.0402077
0.0402836
0.0403605
0.0404412
0.0405241
0.0406116
0.0407025
0.0407992
0.040901
0.04101
0.0411257
0.0412504
0.041384
0.0415283
0.041684
0.0418528
0.0420356
0.0422343
0.0424501
0.0426846
0.0429402
0.0432177
0.0435195
0.0438474
0.044208
0.0446066
0.0450437
0.0455208
0.0460447
0.0466167
0.0472516
0.0479305
0.0487143
0.0495382
0.0505249
0.0515398
0.0527827
0.0540791
0.0556205
0.057353
0.0592155
0.0615743
0.0638195
0.0669144
0.0698007
0.0735526
0.0775489
0.0819172
0.0872833
0.092984
0.0995854
0.108036
0.117804
0.130846
0.151474
0.17986
0.214493
0.266884
0.383283
0.494854
0.615399
0.0421609
0.0422404
0.0423219
0.0424081
0.0424943
0.0425827
0.0426707
0.0427605
0.0428502
0.0429421
0.0430351
0.0431308
0.043229
0.0433308
0.0434364
0.0435477
0.0436644
0.0437891
0.0439215
0.0440645
0.0442181
0.0443849
0.0445654
0.0447621
0.0449754
0.0452082
0.0454609
0.045736
0.0460357
0.0463601
0.0467135
0.0470955
0.0475187
0.04798
0.0484891
0.049037
0.0496483
0.050304
0.0510478
0.051828
0.0527646
0.0537102
0.0549173
0.0560764
0.0576314
0.0591026
0.0610466
0.0630177
0.0653203
0.0680668
0.0706847
0.074457
0.0775603
0.0823408
0.0865295
0.0920766
0.0982257
0.105106
0.113782
0.12507
0.138825
0.160907
0.192986
0.233143
0.29199
0.407996
0.536961
0.640134
0.695755
0.0450659
0.045161
0.0452602
0.0453656
0.0454737
0.0455844
0.0456972
0.0458118
0.0459285
0.0460471
0.0461684
0.0462925
0.04642
0.0465517
0.0466877
0.0468298
0.046978
0.0471342
0.0472988
0.047474
0.0476607
0.0478608
0.0480761
0.0483083
0.0485592
0.0488308
0.0491251
0.0494434
0.0497907
0.0501637
0.0505733
0.0510136
0.0515082
0.0520402
0.0526374
0.0532722
0.0540001
0.0547628
0.0556624
0.0565747
0.0577332
0.0588302
0.0603517
0.0616677
0.06366
0.0652759
0.0678005
0.0699055
0.0729197
0.0758625
0.0792351
0.083476
0.0871504
0.0930131
0.0974862
0.104957
0.112001
0.121434
0.134147
0.150227
0.173961
0.211099
0.257231
0.327165
0.449661
0.588538
0.695394
0.756187
0.77697
0.0488243
0.0489342
0.0490493
0.0491724
0.0492995
0.0494303
0.0495648
0.0497021
0.0498426
0.049986
0.0501329
0.0502834
0.0504379
0.050597
0.0507613
0.0509318
0.0511099
0.0512963
0.0514932
0.0517016
0.0519236
0.0521612
0.0524164
0.0526914
0.0529891
0.05331
0.0536603
0.0540358
0.0544497
0.0548883
0.0553775
0.0558976
0.0564904
0.0571167
0.0578321
0.0585813
0.0594613
0.0603556
0.061457
0.0625224
0.0639625
0.0652219
0.0671351
0.0686063
0.0711386
0.0728781
0.0761465
0.0783019
0.0823586
0.0852259
0.090031
0.0941144
0.0995251
0.10574
0.111971
0.121697
0.131097
0.146095
0.165869
0.192252
0.235765
0.28994
0.373203
0.508762
0.65507
0.764099
0.821431
0.833586
0.820004
0.05329
0.0534231
0.0535644
0.053714
0.0538705
0.0540309
0.0541974
0.0543668
0.0545416
0.0547196
0.0549031
0.0550905
0.0552837
0.0554818
0.0556869
0.0558986
0.0561196
0.0563497
0.0565925
0.0568476
0.0571188
0.0574061
0.0577138
0.058041
0.058395
0.0587712
0.0591836
0.0596208
0.0601062
0.0606178
0.0611962
0.0618104
0.0625189
0.0632599
0.0641256
0.0650165
0.0660967
0.0671549
0.0685303
0.0697868
0.0715991
0.0730698
0.0754717
0.0771812
0.0803275
0.0823486
0.086386
0.0888434
0.0939565
0.0969973
0.103471
0.107392
0.115792
0.121869
0.133094
0.145159
0.162054
0.186901
0.218924
0.26911
0.334907
0.434104
0.585519
0.736931
0.84595
0.88808
0.891551
0.878023
0.829879
0.0591094
0.0592601
0.0594193
0.0595894
0.0597663
0.0599497
0.0601386
0.0603338
0.0605334
0.0607399
0.0609513
0.0611703
0.0613953
0.0616287
0.06187
0.062121
0.0623826
0.0626558
0.0629433
0.0632452
0.0635666
0.063906
0.0642717
0.0646602
0.0650837
0.0655349
0.0660326
0.0665632
0.0671526
0.06778
0.0684914
0.0692497
0.0701248
0.0710317
0.0721133
0.073192
0.0745526
0.0758117
0.0775644
0.0790406
0.0813435
0.083066
0.0860605
0.088123
0.0918946
0.094505
0.0991089
0.10252
0.10816
0.112613
0.11996
0.126152
0.137056
0.146981
0.165287
0.184281
0.216883
0.256083
0.317406
0.396245
0.515277
0.682476
0.834608
0.934485
0.966662
0.966267
0.932354
0.889114
0.808772
0.0663144
0.0665177
0.0667307
0.0669571
0.0671914
0.0674334
0.0676818
0.0679363
0.0681964
0.0684619
0.0687335
0.0690103
0.0692941
0.0695835
0.0698816
0.0701872
0.0705045
0.0708327
0.0711772
0.0715373
0.07192
0.0723243
0.0727597
0.0732241
0.073729
0.0742721
0.0748672
0.0755082
0.0762156
0.0769793
0.0778446
0.0787673
0.0798392
0.0809326
0.0822793
0.0835653
0.0852809
0.0867687
0.0890052
0.0907371
0.0936599
0.0956904
0.0994011
0.101952
0.106372
0.109966
0.114895
0.120249
0.12594
0.13406
0.142053
0.155343
0.16896
0.192222
0.217846
0.260378
0.309787
0.387725
0.481448
0.625054
0.799975
0.949625
1.02643
1.04947
1.03954
1.00427
0.929162
0.856504
0.762771
0.0756776
0.0759052
0.0761443
0.0764003
0.0766664
0.0769425
0.0772277
0.0775206
0.0778219
0.0781303
0.078448
0.0787729
0.0791083
0.0794521
0.0798085
0.080176
0.0805603
0.08096
0.0813826
0.0818267
0.0823013
0.0828051
0.0833478
0.0839296
0.0845586
0.0852409
0.0859773
0.0867827
0.0876564
0.0886229
0.0896916
0.0908506
0.092173
0.0935384
0.0952071
0.0967896
0.0989081
0.100731
0.103473
0.105589
0.109135
0.111625
0.116104
0.119351
0.12458
0.129723
0.135289
0.144375
0.151243
0.166744
0.179506
0.204826
0.230839
0.272475
0.323446
0.393424
0.4872
0.602808
0.7692
0.943464
1.07025
1.13245
1.14122
1.12253
1.07495
0.989745
0.902474
0.832601
0.730135
0.0878394
0.0881713
0.0885177
0.0888839
0.0892643
0.089655
0.090058
0.0904675
0.0908872
0.0913119
0.0917465
0.0921862
0.0926363
0.0930933
0.0935626
0.0940431
0.0945396
0.0950536
0.0955894
0.096151
0.0967409
0.097369
0.0980295
0.0987469
0.0994958
0.100332
0.101186
0.102178
0.103175
0.10438
0.105575
0.107021
0.10848
0.110192
0.11203
0.114033
0.116375
0.118766
0.121792
0.124701
0.128674
0.132214
0.137654
0.142261
0.149681
0.157406
0.167389
0.182687
0.198553
0.225721
0.256972
0.298661
0.357783
0.422547
0.52147
0.630249
0.774538
0.954004
1.10808
1.20662
1.23175
1.23604
1.21115
1.14648
1.06738
0.986518
0.901873
0.827821
0.727457
0.103619
0.10397
0.104344
0.104741
0.105158
0.10559
0.10604
0.106502
0.106981
0.10747
0.107976
0.108493
0.109026
0.109574
0.110139
0.110723
0.111328
0.11196
0.112618
0.113315
0.11404
0.114828
0.115636
0.116552
0.117454
0.118545
0.119549
0.12089
0.122022
0.123691
0.124987
0.127036
0.128587
0.131055
0.133001
0.135939
0.13846
0.14212
0.145417
0.150318
0.154836
0.161585
0.168985
0.178436
0.191892
0.207756
0.2311
0.261383
0.30003
0.351712
0.416479
0.491362
0.592013
0.704207
0.842914
1.0093
1.17557
1.29719
1.33471
1.34313
1.33691
1.30068
1.22431
1.14619
1.06242
0.974437
0.897298
0.826269
0.730873
0.125651
0.12622
0.126809
0.127428
0.128067
0.128724
0.129398
0.130084
0.130783
0.131492
0.132213
0.132944
0.133686
0.134439
0.135206
0.135987
0.136785
0.137608
0.138447
0.13933
0.140219
0.141197
0.142142
0.143269
0.144264
0.145629
0.14667
0.148401
0.149487
0.151711
0.152876
0.155679
0.157127
0.160588
0.162697
0.167018
0.170393
0.176277
0.181635
0.190942
0.199327
0.21493
0.230354
0.25519
0.286679
0.326442
0.380643
0.444847
0.525169
0.619564
0.727567
0.847954
0.987042
1.14192
1.30612
1.43679
1.47822
1.49147
1.48645
1.44055
1.38615
1.30308
1.21264
1.13436
1.06073
0.982714
0.904603
0.836369
0.772537
0.154779
0.155376
0.156013
0.15669
0.157401
0.15814
0.158907
0.159696
0.160508
0.161337
0.162187
0.163053
0.16394
0.164843
0.165771
0.16672
0.1677
0.168716
0.169764
0.170885
0.172019
0.173301
0.174532
0.176068
0.177403
0.179345
0.18076
0.183307
0.184814
0.188248
0.190063
0.194735
0.197591
0.203843
0.209141
0.217589
0.227668
0.24046
0.258044
0.280351
0.308289
0.348737
0.393975
0.459147
0.534512
0.622881
0.730063
0.847015
0.975493
1.11075
1.25074
1.39173
1.54021
1.66119
1.68907
1.69033
1.6839
1.61685
1.5542
1.46381
1.36437
1.26215
1.18644
1.11865
1.05923
1.03189
1.01862
0.971616
0.9007
0.199349
0.200376
0.201448
0.202577
0.20376
0.204985
0.206258
0.207566
0.208919
0.210306
0.21174
0.213208
0.214728
0.216287
0.217907
0.219575
0.221331
0.223149
0.225077
0.227113
0.229276
0.231601
0.233981
0.236647
0.239295
0.242563
0.245583
0.249964
0.254176
0.261337
0.268516
0.280385
0.293145
0.311548
0.333596
0.361302
0.398498
0.44053
0.498977
0.563946
0.648073
0.747569
0.858971
0.990919
1.12779
1.27003
1.42399
1.57427
1.70824
1.83217
1.96398
2.01411
2.0235
2.01996
1.97655
1.88882
1.79458
1.67147
1.53731
1.40887
1.29133
1.19949
1.14203
1.09611
1.10558
1.17253
1.22436
1.18761
1.07442
0.316079
0.319268
0.322572
0.325979
0.329498
0.333113
0.336844
0.340671
0.344624
0.348684
0.352889
0.357226
0.361734
0.366407
0.37131
0.37639
0.381832
0.387461
0.393554
0.400007
0.407121
0.414316
0.422449
0.431151
0.440966
0.451856
0.467244
0.487519
0.512883
0.545377
0.585123
0.635697
0.694466
0.765591
0.846396
0.941969
1.04946
1.17143
1.30682
1.4565
1.61657
1.78491
1.95319
2.11605
2.26728
2.39607
2.52585
2.61098
2.64156
2.64325
2.62914
2.58189
2.47225
2.32757
2.16518
1.99938
1.84834
1.69491
1.53823
1.39152
1.27667
1.16895
1.06324
0.965286
1.12398
1.52612
1.77179
1.64099
1.37219
1.13245
1.15118
1.17019
1.1893
1.20864
1.22803
1.24761
1.26726
1.28709
1.30703
1.32718
1.34752
1.36811
1.389
1.41029
1.43186
1.45427
1.47694
1.50043
1.5256
1.55146
1.57621
1.6102
1.66053
1.72641
1.80548
1.89613
1.9949
2.10277
2.21721
2.33835
2.46602
2.59847
2.73806
2.88489
3.0447
3.20791
3.37226
3.53418
3.68762
3.82489
3.94791
4.04769
4.08458
4.09578
4.09258
4.07097
4.013
3.88
3.69715
3.47591
3.22966
2.97665
2.72988
2.48827
2.24519
1.98496
1.7417
1.55309
1.38448
1.24748
1.17794
1.10063
1.09479
1.93963
2.60926
3.08083
2.90525
2.49818
8.25944
8.2574
8.25472
8.25123
8.24708
8.24204
8.23628
8.22961
8.2221
8.21369
8.20431
8.19406
8.18277
8.17048
8.15727
8.14287
8.12757
8.11107
8.09362
8.07481
8.05522
8.03475
8.01199
7.98653
7.95841
7.92872
7.90046
7.8651
7.82383
7.7788
7.73126
7.68079
7.62709
7.56986
7.50894
7.44412
7.37526
7.30254
7.2263
7.14732
7.06666
6.98556
6.90593
6.82951
6.75661
6.68543
6.62081
6.56524
6.51808
6.47666
6.43838
6.40176
6.36631
6.33181
6.298
6.26482
6.23237
6.20072
6.17002
6.1406
6.11287
6.08636
6.06065
6.03795
6.01792
6.00655
6.01814
6.02015
6.00657
0.0289353
0.0289334
0.0289388
0.028935
0.0289338
0.0289238
0.0289202
0.0289079
0.0289016
0.0288942
0.0288789
0.0288889
0.0289386
0.0289534
0.0288789
0.0288352
0.0288354
0.0288438
0.0288236
0.0287594
0.028767
0.0288079
0.0287407
0.0287203
0.02865
0.0286123
0.0286266
0.0286171
0.0286085
0.0285918
0.0285495
0.028531
0.0285217
0.0284773
0.0284593
0.0284151
0.0284045
0.0283832
0.0283504
0.0283223
0.0282928
0.0282911
0.028259
0.0281973
0.0281914
0.0281716
0.0281487
0.0281185
0.0280676
0.0280495
0.0280669
0.028069
0.0280792
0.0280711
0.0280699
0.0280415
0.0280367
0.0279971
0.0280023
0.0292847
0.0292905
0.0292718
0.0292519
0.0292297
0.0292207
0.0292197
0.0292074
0.0292202
0.0292163
0.0292141
0.0292364
0.0292045
0.0291661
0.0291244
0.0291261
0.0291443
0.0291434
0.0290826
0.0290585
0.0290644
0.0290478
0.0289795
0.0289698
0.0288981
0.0288684
0.0288625
0.0288532
0.0288467
0.028812
0.0287737
0.0287558
0.0287372
0.0286905
0.0286715
0.0286314
0.0286106
0.0285913
0.0285681
0.0285351
0.02849
0.0284865
0.0284714
0.0284329
0.0283953
0.02838
0.0283642
0.0283462
0.0283246
0.0282729
0.0282672
0.0282857
0.0282915
0.0283069
0.0283016
0.0283144
0.0283088
0.0283094
0.0282871
0.0296941
0.0296638
0.0296286
0.0296098
0.029602
0.0296074
0.0296048
0.0295957
0.0296096
0.0296175
0.0296125
0.0295661
0.0295464
0.0295173
0.0295147
0.0295209
0.0295064
0.0294509
0.0293861
0.0293772
0.0293867
0.0293722
0.0293069
0.0292617
0.0291751
0.0291571
0.0291698
0.029167
0.0291243
0.0290928
0.0290575
0.0290375
0.0290123
0.0289649
0.0289438
0.0289095
0.0288822
0.0288617
0.0288425
0.0288154
0.0287688
0.0287531
0.0287444
0.0287201
0.028692
0.0286674
0.028651
0.0286357
0.0286147
0.0285766
0.0285664
0.0285544
0.0285793
0.028591
0.0285815
0.0285781
0.0285789
0.0285783
0.028578
0.0301122
0.0301167
0.0301269
0.0301307
0.0301331
0.030137
0.0301447
0.0301421
0.0301306
0.0300642
0.030038
0.0299789
0.0299535
0.0299331
0.0299353
0.0299296
0.0298944
0.0298275
0.0298116
0.0298223
0.0298196
0.0297283
0.0296342
0.0296055
0.0295531
0.0295521
0.0295252
0.0295031
0.0294771
0.0294269
0.0293944
0.0293684
0.029337
0.0292869
0.0292617
0.0292296
0.0291945
0.0291702
0.0291499
0.0291273
0.0290907
0.0290605
0.0290435
0.0290346
0.0290057
0.0289869
0.0289602
0.0289587
0.0289423
0.0289204
0.0288868
0.0288909
0.0289111
0.028932
0.0289675
0.0289578
0.028953
0.0289531
0.0289663
0.0308046
0.0307748
0.0307564
0.030741
0.0307158
0.0306866
0.0306464
0.0306005
0.0305498
0.0304791
0.0304591
0.0304552
0.0304604
0.0304959
0.0305113
0.0304613
0.0303666
0.0303159
0.0302951
0.0302757
0.0302278
0.0301414
0.0301127
0.0300606
0.0299786
0.0299589
0.0299586
0.0299504
0.0298775
0.0298375
0.0298028
0.0297721
0.0297362
0.029685
0.0296568
0.0296268
0.0295931
0.0295638
0.0295413
0.0295204
0.029496
0.0294665
0.0294459
0.0294264
0.0294162
0.029388
0.0293748
0.0293614
0.0293371
0.0293307
0.0293062
0.0292887
0.0292856
0.029299
0.0293286
0.0293612
0.0293938
0.0294329
0.0294616
0.031356
0.0313274
0.0313013
0.0312794
0.0312587
0.0312342
0.0312195
0.0311982
0.0311946
0.0311989
0.0311996
0.0312035
0.031183
0.0311346
0.0310464
0.0309331
0.0308588
0.0308448
0.030855
0.0308591
0.0307905
0.0306993
0.0306058
0.0305358
0.0305033
0.0305165
0.030471
0.0304197
0.0303758
0.030317
0.0302807
0.0302426
0.0302013
0.0301476
0.0301139
0.0300811
0.0300454
0.0300113
0.0299836
0.0299599
0.0299371
0.0299127
0.0298847
0.0298702
0.0298508
0.0298457
0.029823
0.0298128
0.0298043
0.0297791
0.0297591
0.0297606
0.0297638
0.0297744
0.029792
0.0298183
0.0298493
0.0298895
0.0299271
0.0322089
0.032194
0.0321658
0.0321478
0.0321246
0.0320941
0.032055
0.0320306
0.0320077
0.0319668
0.031929
0.0318533
0.0317729
0.0317118
0.0316761
0.0316298
0.0316308
0.0316205
0.0316055
0.0315069
0.0313618
0.0312922
0.03125
0.0311978
0.0311424
0.0310917
0.031069
0.0310453
0.030949
0.0309032
0.0308613
0.0308176
0.0307702
0.0307137
0.0306757
0.0306417
0.0306071
0.0305726
0.030543
0.0305213
0.0305022
0.0304797
0.0304576
0.0304324
0.0304215
0.0304053
0.0303842
0.0303723
0.0303765
0.030377
0.0303747
0.0303798
0.0303879
0.0304004
0.0304151
0.0304349
0.0304584
0.030487
0.030517
0.0331544
0.0331222
0.0330902
0.0330628
0.0330267
0.0329869
0.0329367
0.0328896
0.0328448
0.0327931
0.0327733
0.0327257
0.0326892
0.0326177
0.0325332
0.0324826
0.032428
0.0323934
0.0322949
0.0322019
0.0321604
0.0321043
0.0319768
0.0318834
0.031866
0.0318668
0.0318002
0.0317142
0.031652
0.0315859
0.0315394
0.0314865
0.0314333
0.0313751
0.0313301
0.0312907
0.031252
0.0312137
0.0311787
0.0311492
0.0311271
0.0311029
0.0310834
0.0310511
0.0310429
0.0310187
0.031023
0.0310271
0.0310332
0.0310401
0.0310482
0.0310613
0.031077
0.0310968
0.0311177
0.0311408
0.0311667
0.0311923
0.031219
0.0342106
0.0341813
0.0341623
0.0341351
0.0340965
0.0340471
0.0339878
0.0339355
0.0338878
0.0338359
0.0337844
0.0337025
0.0335994
0.0334894
0.033424
0.0334123
0.0334129
0.0333252
0.0332793
0.0331869
0.0330592
0.0329082
0.0328456
0.0328283
0.03279
0.0326916
0.0326346
0.0325855
0.0324736
0.0324203
0.0323657
0.0323068
0.0322445
0.0321814
0.0321301
0.032087
0.0320476
0.032009
0.0319728
0.0319485
0.0319294
0.031908
0.0318865
0.0318697
0.0318564
0.0318607
0.0318703
0.0318823
0.0318941
0.0319054
0.0319167
0.031932
0.0319498
0.0319722
0.0319969
0.0320233
0.0320534
0.0320804
0.032108
0.0353929
0.0353393
0.0352922
0.035261
0.0352414
0.0352598
0.0352326
0.0351428
0.0350546
0.0349786
0.0349091
0.0348422
0.0347708
0.0347275
0.0347132
0.0346971
0.0345856
0.0344925
0.0343294
0.0342219
0.0340843
0.0340428
0.0339437
0.0338559
0.0337976
0.0337593
0.03367
0.0335531
0.0334709
0.0333937
0.0333314
0.0332597
0.0331902
0.0331245
0.0330688
0.0330191
0.0329728
0.0329285
0.0328864
0.0328549
0.0328307
0.0328069
0.0328
0.0327724
0.0327813
0.0327891
0.0328037
0.0328246
0.0328472
0.0328698
0.0328902
0.0329123
0.0329349
0.0329611
0.0329902
0.0330206
0.0330567
0.0330887
0.0331219
0.036973
0.0369606
0.0368865
0.0368794
0.0368547
0.0368185
0.0367729
0.0366613
0.0365713
0.0364724
0.0363858
0.0362968
0.0362137
0.0361108
0.0360621
0.0359575
0.0358278
0.0357369
0.0356574
0.0355212
0.0354112
0.035266
0.0351909
0.0351591
0.0350799
0.0349584
0.0348567
0.0347755
0.0346505
0.0345854
0.0345127
0.0344364
0.034354
0.0342779
0.0342129
0.0341574
0.0341095
0.0340633
0.0340217
0.0339956
0.0339827
0.0339708
0.0339781
0.0339752
0.0339766
0.033982
0.0339957
0.0340196
0.0340492
0.0340825
0.0341145
0.0341473
0.0341787
0.0342114
0.0342459
0.0342801
0.0343208
0.0343558
0.0343933
0.0389656
0.0388935
0.0388218
0.0387571
0.0386987
0.0386258
0.0385361
0.0384157
0.0382805
0.0381764
0.0380691
0.037973
0.0378527
0.0377812
0.03774
0.0376469
0.0375654
0.0374689
0.037231
0.0370591
0.0369437
0.0368497
0.0367835
0.0366437
0.0365569
0.0364498
0.0363334
0.0361938
0.0360831
0.0359871
0.0359029
0.0358059
0.0357127
0.0356345
0.0355684
0.0355072
0.0354506
0.035396
0.0353466
0.0353124
0.0352939
0.0352903
0.035293
0.0352975
0.0353005
0.0353062
0.035318
0.0353409
0.0353723
0.0354123
0.0354545
0.0354999
0.0355447
0.0355899
0.0356365
0.0356803
0.0357316
0.0357736
0.0358196
0.0408941
0.0408215
0.0407637
0.0406817
0.0406019
0.0405111
0.0404196
0.0403367
0.0402498
0.0401565
0.0400697
0.0400378
0.039973
0.0399043
0.0398068
0.0396103
0.0394141
0.0391809
0.0390136
0.0389482
0.0388145
0.0386757
0.0385838
0.0384858
0.0383365
0.0381862
0.03806
0.0379284
0.0377843
0.0377047
0.037606
0.0375088
0.0374021
0.0373058
0.0372225
0.0371537
0.0370922
0.0370351
0.0369847
0.036949
0.0369374
0.036942
0.0369543
0.0369715
0.0369863
0.0369999
0.037015
0.0370374
0.0370669
0.037106
0.0371503
0.0372005
0.037253
0.0373069
0.0373644
0.0374176
0.0374808
0.0375316
0.0375885
0.0434597
0.0433778
0.0433508
0.0433808
0.0433364
0.0432725
0.0432092
0.0430224
0.042913
0.0428108
0.0427101
0.0425575
0.0424019
0.0422595
0.0420467
0.0418388
0.0416585
0.0415368
0.0414515
0.0412923
0.0410794
0.0409719
0.0408234
0.0406224
0.0405297
0.0403562
0.0402
0.0400174
0.0398854
0.0397553
0.0396406
0.0395087
0.0393806
0.0392848
0.0392067
0.0391316
0.0390609
0.0389937
0.0389319
0.038882
0.0388518
0.0388375
0.0388382
0.0388503
0.0388671
0.0388868
0.0389072
0.0389336
0.0389649
0.0390055
0.0390515
0.0391051
0.039163
0.0392238
0.0392906
0.0393527
0.039428
0.0394879
0.039557
0.0467172
0.0466173
0.0465435
0.0465141
0.0464419
0.0463753
0.046293
0.0461626
0.0460202
0.045858
0.0456629
0.0454376
0.0452305
0.0451134
0.0449196
0.0447629
0.0445943
0.0444392
0.0441853
0.0438958
0.0437531
0.0436018
0.0434523
0.0433489
0.0430869
0.0428992
0.0427228
0.042542
0.0423653
0.0422647
0.0421293
0.0420053
0.0418712
0.0417461
0.0416408
0.0415511
0.0414709
0.0413992
0.0413361
0.0412852
0.0412535
0.0412503
0.0412519
0.0412685
0.0412926
0.0413217
0.0413506
0.0413833
0.0414176
0.0414593
0.0415051
0.0415584
0.0416175
0.0416802
0.0417522
0.0418193
0.0419047
0.0419723
0.0420539
0.0501846
0.0500799
0.0500279
0.0499771
0.0499343
0.04987
0.0498147
0.049697
0.0495624
0.0493737
0.0491966
0.0489793
0.0488407
0.0486313
0.0484148
0.0482051
0.0479286
0.0477082
0.0474104
0.0473253
0.0472053
0.0470455
0.0467573
0.0464985
0.0463001
0.0461142
0.0459005
0.0456564
0.0455151
0.0453277
0.0451723
0.0449921
0.0448088
0.0446891
0.0445951
0.0445026
0.0444135
0.0443295
0.0442518
0.0441838
0.0441324
0.0441009
0.044082
0.0440753
0.0440821
0.0441038
0.0441333
0.0441714
0.0442131
0.0442625
0.044316
0.0443765
0.0444433
0.0445132
0.0445946
0.0446699
0.0447679
0.0448448
0.0449406
0.0552203
0.0550402
0.0548569
0.0547667
0.0545667
0.0544657
0.0542607
0.054168
0.0539532
0.0538213
0.053586
0.0533823
0.0531183
0.0528604
0.0526532
0.0523685
0.0522072
0.0519958
0.0518399
0.0515965
0.0512921
0.0509014
0.0506591
0.0505222
0.0501668
0.0499871
0.0496432
0.0494527
0.0492041
0.0490681
0.0488811
0.0487207
0.0485591
0.0483944
0.0482579
0.0481373
0.0480313
0.0479395
0.0478603
0.0477937
0.0477434
0.0477142
0.0477078
0.0477106
0.047725
0.0477527
0.0477854
0.0478274
0.0478725
0.0479263
0.0479838
0.0480492
0.0481216
0.0481974
0.0482878
0.0483706
0.0484821
0.048569
0.0486803
0.0612598
0.0610331
0.0608108
0.0605675
0.0603791
0.0600832
0.0598752
0.0596508
0.0593659
0.0591967
0.0588705
0.058698
0.0583641
0.0582201
0.0579205
0.0577301
0.0574384
0.0571527
0.056738
0.0564364
0.0561014
0.0559174
0.0556894
0.0553057
0.0550777
0.054751
0.0544595
0.0541883
0.0540268
0.053762
0.0535535
0.0533065
0.0530338
0.0528794
0.0527687
0.0526541
0.0525399