/*--------------------------------*- C++ -*----------------------------------*\
| =========                 |                                                 |
| \\      /  F ield         | OpenFOAM: The Open Source CFD Toolbox           |
|  \\    /   O peration     | Version:  2312                                  |
|   \\  /    A nd           | Website:  www.openfoam.com                      |
|    \\/     M anipulation  |                                                 |
\*---------------------------------------------------------------------------*/
FoamFile
{
    version     2.0;
    format      ascii;
    arch        "LSB;label=32;scalar=64";
    class       volScalarField;
    location    "900";
    object      p;
}
// * * * * * * * * * * * * * * * * * * * * * * * * * * * * * * * * * * * * * //

dimensions      [0 2 -2 0 0 0 0];

internalField   nonuniform List<scalar> 
76025
(
0.000340727
0.000333498
0.000326186
0.000318848
0.000311421
0.000303911
0.000296086
0.000288408
0.000280512
0.000272665
0.000264724
0.00025672
0.000248651
0.000240573
0.00023244
0.000224307
0.000216261
0.000208077
0.000199998
0.000192021
0.000184063
0.000175936
0.000168034
0.000160322
0.000152667
0.00014518
0.000137689
0.000130279
0.00012318
0.000115912
0.000109036
0.00010251
9.63183e-05
9.04903e-05
8.48145e-05
7.9309e-05
7.40699e-05
6.88674e-05
6.44072e-05
6.04246e-05
5.68391e-05
5.34626e-05
5.03188e-05
4.81658e-05
4.64398e-05
4.5085e-05
4.41946e-05
4.43383e-05
4.52444e-05
4.65713e-05
4.85781e-05
5.14093e-05
5.52398e-05
6.03729e-05
6.68324e-05
7.45538e-05
8.33237e-05
9.3618e-05
0.000105155
0.00011801
0.0001327
0.000149203
0.00016802
0.000188249
0.000210361
0.000234962
0.000260895
0.000290211
0.000324191
0.000343084
0.000335458
0.000327813
0.000320094
0.000312252
0.00030424
0.000296174
0.000288045
0.000279803
0.000271508
0.000263151
0.000254766
0.000246347
0.000237879
0.000229388
0.00022092
0.000212394
0.000203924
0.000195416
0.000187008
0.000178565
0.000170225
0.00016202
0.000153941
0.000145935
0.000138032
0.000130231
0.000122654
0.000115216
0.000107923
0.000100891
9.40233e-05
8.74495e-05
8.12382e-05
7.51829e-05
6.94178e-05
6.38963e-05
5.87422e-05
5.40924e-05
4.9794e-05
4.59131e-05
4.23787e-05
3.9325e-05
3.69359e-05
3.4997e-05
3.35597e-05
3.26989e-05
3.2674e-05
3.33518e-05
3.46435e-05
3.66672e-05
3.9586e-05
4.35357e-05
4.86612e-05
5.50415e-05
6.26627e-05
7.15167e-05
8.18116e-05
9.34963e-05
0.000106668
0.000121605
0.000138441
0.000157236
0.000177835
0.000200443
0.000225368
0.000252132
0.000281675
0.000313707
0.000345167
0.000337163
0.000329116
0.000320969
0.000312674
0.000304256
0.000295745
0.000287149
0.000278481
0.000269749
0.000260969
0.000252147
0.00024328
0.00023438
0.000225466
0.000216532
0.000207604
0.00019869
0.000189801
0.000180943
0.000172152
0.000163458
0.00015486
0.000146362
0.00013797
0.000129699
0.000121589
0.000113647
0.000105869
9.82929e-05
9.09229e-05
8.37782e-05
7.6911e-05
7.03329e-05
6.40295e-05
5.80345e-05
5.23686e-05
4.70672e-05
4.21509e-05
3.76244e-05
3.35228e-05
2.98611e-05
2.66838e-05
2.40415e-05
2.19286e-05
2.0379e-05
1.94475e-05
1.92284e-05
1.9731e-05
2.09638e-05
2.29922e-05
2.59259e-05
2.9878e-05
3.49575e-05
4.12497e-05
4.88077e-05
5.76784e-05
6.7965e-05
7.9727e-05
9.30699e-05
0.000108168
0.000125138
0.000144012
0.000164833
0.000187724
0.00021287
0.000240114
0.00026984
0.00030121
0.000346921
0.000338481
0.00032998
0.000321378
0.000312629
0.000303741
0.000294749
0.000285684
0.000276559
0.000267374
0.000258133
0.000248841
0.000239507
0.000230143
0.000220768
0.00021139
0.000202026
0.000192684
0.000183378
0.000174123
0.000164939
0.000155837
0.000146831
0.000137935
0.000129167
0.000120539
0.000112068
0.000103771
9.56649e-05
8.77695e-05
8.01024e-05
7.26834e-05
6.55327e-05
5.8677e-05
5.21336e-05
4.59123e-05
4.00259e-05
3.449e-05
2.93342e-05
2.459e-05
2.02817e-05
1.6429e-05
1.30594e-05
1.02161e-05
7.93103e-06
6.22933e-06
5.15185e-06
4.76223e-06
5.10953e-06
6.23046e-06
8.18082e-06
1.10455e-05
1.49232e-05
1.99124e-05
2.61007e-05
3.35602e-05
4.23585e-05
5.25845e-05
6.43297e-05
7.77013e-05
9.28298e-05
0.000109821
0.000128723
0.000149605
0.000172587
0.000197825
0.00022516
0.000254801
0.000286009
0.000348561
0.00033965
0.000330676
0.000321598
0.00031237
0.000302995
0.000293515
0.000283964
0.000274354
0.000264683
0.000254954
0.000245176
0.000235362
0.000225527
0.000215685
0.000205848
0.000196027
0.000186236
0.000176487
0.000166798
0.000157182
0.000147655
0.000138233
0.000128933
0.00011977
0.00011076
0.000101918
9.32625e-05
8.48121e-05
7.65828e-05
6.85928e-05
6.08603e-05
5.34072e-05
4.62598e-05
3.94339e-05
3.29379e-05
2.67855e-05
2.09959e-05
1.55983e-05
1.06202e-05
6.08356e-06
2.01001e-06
-1.57387e-06
-4.63171e-06
-7.12656e-06
-9.02638e-06
-1.02924e-05
-1.08705e-05
-1.07068e-05
-9.75218e-06
-7.94872e-06
-5.22201e-06
-1.48591e-06
3.34994e-06
9.37309e-06
1.66643e-05
2.5304e-05
3.53833e-05
4.70009e-05
6.02643e-05
7.52879e-05
9.21748e-05
0.000110993
0.000131804
0.00015471
0.00017984
0.000207031
0.000236551
0.00026771
0.000350118
0.000340709
0.000331238
0.00032166
0.000311925
0.000302038
0.000292043
0.000281976
0.000271848
0.00026166
0.000251416
0.000241126
0.000230805
0.000220468
0.000210127
0.000199796
0.000189487
0.000179214
0.000168992
0.000158836
0.000148762
0.000138787
0.000128927
0.000119199
0.000109617
0.0001002
9.09635e-05
8.19256e-05
7.31033e-05
6.45143e-05
5.61773e-05
4.81112e-05
4.03384e-05
3.28815e-05
2.57548e-05
1.89692e-05
1.25396e-05
6.48434e-06
8.28735e-07
-4.40271e-06
-9.18809e-06
-1.35048e-05
-1.7326e-05
-2.0619e-05
-2.33475e-05
-2.54736e-05
-2.69584e-05
-2.7755e-05
-2.78102e-05
-2.70699e-05
-2.54746e-05
-2.29547e-05
-1.94312e-05
-1.48198e-05
-9.03493e-06
-1.99082e-06
6.39937e-06
1.62294e-05
2.76017e-05
4.06242e-05
5.54067e-05
7.20516e-05
9.06432e-05
0.000111243
0.00013392
0.000158753
0.000185638
0.000214928
0.000245492
0.000351505
0.000341565
0.000331565
0.000321451
0.000311177
0.000300744
0.000290201
0.000279585
0.000268909
0.000258174
0.000247385
0.000236552
0.000225691
0.000214817
0.000203945
0.000193089
0.000182263
0.000171482
0.00016076
0.000150115
0.000139562
0.000129118
0.000118799
0.000108622
9.86035e-05
8.87614e-05
7.91126e-05
6.96746e-05
6.04653e-05
5.1503e-05
4.28063e-05
3.43937e-05
2.62872e-05
1.85072e-05
1.10664e-05
3.9767e-06
-2.74746e-06
-9.08906e-06
-1.50245e-05
-2.0531e-05
-2.55872e-05
-3.01706e-05
-3.42551e-05
-3.78091e-05
-4.07978e-05
-4.31826e-05
-4.4923e-05
-4.59764e-05
-4.62933e-05
-4.58192e-05
-4.44943e-05
-4.22514e-05
-3.90158e-05
-3.47075e-05
-2.92438e-05
-2.25387e-05
-1.45016e-05
-5.03542e-06
5.96397e-06
1.8605e-05
3.29967e-05
4.92435e-05
6.74377e-05
8.76533e-05
0.000109932
0.000134294
0.000160808
0.000189741
0.000219847
0.000352665
0.000342161
0.000331595
0.000320912
0.000310062
0.000299049
0.000287924
0.000276727
0.000265471
0.000254159
0.000242795
0.000231389
0.000219958
0.000208519
0.000197088
0.000185681
0.000174312
0.000162997
0.000151751
0.000140592
0.000129536
0.000118599
0.000107799
9.71528e-05
8.66779e-05
7.63918e-05
6.6312e-05
5.64565e-05
4.68432e-05
3.74904e-05
2.8416e-05
1.96388e-05
1.11807e-05
3.05943e-06
-4.71345e-06
-1.2126e-05
-1.91642e-05
-2.58119e-05
-3.2047e-05
-3.78484e-05
-4.31964e-05
-4.80695e-05
-5.24422e-05
-5.62846e-05
-5.95628e-05
-6.22401e-05
-6.42759e-05
-6.56281e-05
-6.62523e-05
-6.60976e-05
-6.51051e-05
-6.32099e-05
-6.03409e-05
-5.6422e-05
-5.1373e-05
-4.51094e-05
-3.7539e-05
-2.85632e-05
-1.8077e-05
-5.97095e-06
7.86459e-06
2.35385e-05
4.11481e-05
6.07707e-05
8.24384e-05
0.000106172
0.000132215
0.000160581
0.000190958
0.00035356
0.000342458
0.000331293
0.000320005
0.000308543
0.000296914
0.000285171
0.000273358
0.000261488
0.000249565
0.000237593
0.000225582
0.000213551
0.000201518
0.000189499
0.000177511
0.00016557
0.000153693
0.000141895
0.000130193
0.000118607
0.000107151
9.58457e-05
8.4707e-05
7.3753e-05
6.30016e-05
5.24707e-05
4.21783e-05
3.21423e-05
2.23807e-05
1.29112e-05
3.75317e-06
-5.07219e-06
-1.35501e-05
-2.16704e-05
-2.94211e-05
-3.67894e-05
-4.37602e-05
-5.0313e-05
-5.64291e-05
-6.20904e-05
-6.72766e-05
-7.19633e-05
-7.61221e-05
-7.97208e-05
-8.27252e-05
-8.5097e-05
-8.67948e-05
-8.7777e-05
-8.79976e-05
-8.74019e-05
-8.5928e-05
-8.35088e-05
-8.00721e-05
-7.55404e-05
-6.98308e-05
-6.28524e-05
-5.45068e-05
-4.46884e-05
-3.32876e-05
-2.01903e-05
-5.28202e-06
1.15383e-05
3.03459e-05
5.11855e-05
7.41748e-05
9.95566e-05
0.000126836
0.000155987
0.00035413
0.000342392
0.000330591
0.000318661
0.000306551
0.000294269
0.000281871
0.000269403
0.000256882
0.000244312
0.000231695
0.000219045
0.00020638
0.000193719
0.00018108
0.00016848
0.000155936
0.000143466
0.000131087
0.000118816
0.000106672
9.46734e-05
8.28378e-05
7.11837e-05
5.97291e-05
4.84923e-05
3.74912e-05
2.67439e-05
1.62683e-05
6.08211e-06
-3.79732e-06
-1.335e-05
-2.25569e-05
-3.14062e-05
-3.98887e-05
-4.79927e-05
-5.57072e-05
-6.30181e-05
-6.99072e-05
-7.6358e-05
-8.23541e-05
-8.78767e-05
-9.29028e-05
-9.74058e-05
-0.000101356
-0.000104722
-0.000107469
-0.00010956
-0.000110955
-0.000111611
-0.00011148
-0.000110505
-0.000108623
-0.000105767
-0.000101863
-9.68304e-05
-9.05816e-05
-8.30197e-05
-7.40402e-05
-6.35316e-05
-5.13738e-05
-3.74486e-05
-2.16521e-05
-3.88604e-06
1.59705e-05
3.81378e-05
6.26675e-05
8.86334e-05
0.000116853
0.000354295
0.000341883
0.000329407
0.000316796
0.000303998
0.000291023
0.000277931
0.000264769
0.000251559
0.000238302
0.000225003
0.000211677
0.000198341
0.000185016
0.000171723
0.000158479
0.000145302
0.000132209
0.00011922
0.000106353
9.36262e-05
8.10593e-05
6.86709e-05
5.64796e-05
4.45039e-05
3.27622e-05
2.12728e-05
1.00535e-05
-8.77787e-07
-1.15039e-05
-2.18074e-05
-3.17686e-05
-4.13714e-05
-5.06066e-05
-5.94654e-05
-6.7937e-05
-7.60126e-05
-8.36796e-05
-9.0922e-05
-9.77259e-05
-0.000104077
-0.000109957
-0.000115347
-0.000120221
-0.000124554
-0.000128316
-0.000131479
-0.000134009
-0.000135872
-0.000137027
-0.000137432
-0.000137036
-0.000135784
-0.000133613
-0.000130453
-0.000126231
-0.000120862
-0.000114253
-0.000106301
-9.68913e-05
-8.59023e-05
-7.32129e-05
-5.86961e-05
-4.2182e-05
-2.34551e-05
-2.29556e-06
2.10287e-05
4.57897e-05
7.31278e-05
0.000353971
0.000340842
0.000327647
0.000314313
0.000300786
0.000287077
0.000273248
0.000259352
0.000245411
0.000231428
0.000217408
0.000203366
0.000189322
0.000175298
0.000161315
0.000147392
0.000133549
0.000119803
0.000106175
9.26829e-05
7.93475e-05
6.61879e-05
5.32236e-05
4.04735e-05
2.79565e-05
1.56913e-05
3.69615e-06
-8.01115e-06
-1.94131e-05
-3.0493e-05
-4.12333e-05
-5.16153e-05
-6.16266e-05
-7.12598e-05
-8.05066e-05
-8.93579e-05
-9.78078e-05
-0.000105845
-0.000113456
-0.000120629
-0.000127353
-0.000133612
-0.000139388
-0.00014466
-0.000149405
-0.000153599
-0.000157218
-0.000160235
-0.000162619
-0.000164337
-0.00016535
-0.000165617
-0.000165088
-0.000163709
-0.000161419
-0.000158148
-0.00015382
-0.000148348
-0.000141631
-0.000133557
-0.000124001
-0.000112821
-9.98234e-05
-8.47721e-05
-6.74813e-05
-4.79523e-05
-2.6596e-05
-3.18267e-06
2.46908e-05
0.00035306
0.000339167
0.000325209
0.000311106
0.000296804
0.000282315
0.000267705
0.000253031
0.000238316
0.000223565
0.000208783
0.000193985
0.000179193
0.000164431
0.00014972
0.000135083
0.000120539
0.000106107
9.18084e-05
7.7663e-05
6.36915e-05
4.99139e-05
3.63503e-05
2.302e-05
9.94232e-06
-2.86412e-06
-1.5381e-05
-2.75908e-05
-3.94763e-05
-5.10214e-05
-6.22085e-05
-7.30212e-05
-8.34507e-05
-9.34911e-05
-0.000103135
-0.000112375
-0.00012121
-0.000129628
-0.000137619
-0.000145176
-0.000152288
-0.000158944
-0.000165126
-0.00017082
-0.000176006
-0.000180665
-0.00018478
-0.000188328
-0.000191287
-0.000193629
-0.000195322
-0.000196334
-0.000196623
-0.000196145
-0.000194849
-0.000192677
-0.000189562
-0.000185426
-0.000180174
-0.000173696
-0.000165851
-0.000156438
-0.000145207
-0.00013201
-0.000116865
-9.99957e-05
-8.13309e-05
-6.05549e-05
-3.85514e-05
0.000351444
0.000336737
0.000321967
0.000307047
0.000291922
0.000276604
0.000261165
0.000245666
0.000230131
0.000214566
0.000198978
0.000183381
0.0001678
0.000152259
0.000136782
0.000121393
0.000106112
9.09606e-05
7.59597e-05
6.1131e-05
4.64957e-05
3.20748e-05
1.78888e-05
3.95754e-06
-9.69951e-06
-2.30635e-05
-3.61164e-05
-4.88408e-05
-6.12204e-05
-7.32391e-05
-8.48801e-05
-9.61307e-05
-0.000106985
-0.000117438
-0.000127485
-0.000137121
-0.000146347
-0.000155153
-0.000163535
-0.000171485
-0.000178998
-0.000186064
-0.00019267
-0.000198806
-0.000204457
-0.000209612
-0.000214257
-0.000218378
-0.000221959
-0.000224982
-0.000227424
-0.000229259
-0.000230459
-0.00023099
-0.000230815
-0.000229893
-0.000228169
-0.000225577
-0.000222027
-0.000217401
-0.000211517
-0.000204151
-0.000195184
-0.000184742
-0.000172897
-0.000159589
-0.000144017
-0.000126767
-0.00010734
0.000348982
0.000333409
0.000317774
0.000301985
0.000285983
0.000269785
0.000253466
0.000237089
0.000220684
0.000204258
0.000187816
0.000171375
0.00015496
0.000138597
0.000122314
0.000106134
9.00794e-05
7.4173e-05
5.84372e-05
4.28947e-05
2.75676e-05
1.24779e-05
-2.35344e-06
-1.6906e-05
-3.11601e-05
-4.50969e-05
-5.86984e-05
-7.19479e-05
-8.48296e-05
-9.73277e-05
-0.000109427
-0.000121119
-0.000132401
-0.000143268
-0.000153718
-0.000163752
-0.00017337
-0.000182567
-0.000191341
-0.00019969
-0.000207609
-0.000215093
-0.000222134
-0.000228726
-0.000234861
-0.000240534
-0.000245738
-0.000250468
-0.000254715
-0.000258468
-0.000261718
-0.000264449
-0.000266646
-0.000268292
-0.000269364
-0.000269842
-0.000269691
-0.000268845
-0.000267214
-0.000264657
-0.000261019
-0.000256268
-0.000250626
-0.000244223
-0.000236843
-0.000228104
-0.000217559
-0.000205782
-0.000189681
0.000345508
0.000329011
0.000312456
0.000295742
0.000278809
0.000261676
0.00024442
0.000227113
0.000209786
0.000192446
0.000175101
0.000157768
0.000140472
0.000123244
0.000106112
8.91003e-05
7.22346e-05
5.55381e-05
3.9035e-05
2.27488e-05
6.70317e-06
-9.07933e-06
-2.45769e-05
-3.97685e-05
-5.46344e-05
-6.91556e-05
-8.33145e-05
-9.70949e-05
-0.000110482
-0.00012346
-0.000136017
-0.00014815
-0.000159857
-0.000171134
-0.000181984
-0.000192413
-0.000202421
-0.000212007
-0.000221173
-0.000229919
-0.000238246
-0.00024615
-0.000253631
-0.000260687
-0.000267319
-0.000273526
-0.000279312
-0.000284677
-0.000289621
-0.000294146
-0.000298254
-0.000301945
-0.000305216
-0.000308069
-0.000310508
-0.000312531
-0.000314114
-0.000315183
-0.000315659
-0.000315469
-0.000314731
-0.000313732
-0.000312649
-0.000311293
-0.000309458
-0.000306979
-0.000303593
-0.000298674
-0.000290299
0.000340818
0.000323335
0.000305799
0.000288099
0.000270175
0.000252045
0.000233794
0.000215498
0.00019719
0.000178882
0.000160579
0.000142301
0.000124075
0.000105933
8.79056e-05
7.00199e-05
5.23024e-05
3.47785e-05
1.74735e-05
4.12698e-07
-1.63794e-05
-3.2879e-05
-4.90636e-05
-6.49116e-05
-8.04031e-05
-9.5519e-05
-0.000110242
-0.000124557
-0.000138449
-0.000151903
-0.000164914
-0.000177479
-0.000189599
-0.000201274
-0.000212511
-0.00022332
-0.000233702
-0.000243662
-0.000253205
-0.000262335
-0.000271057
-0.000279373
-0.000287288
-0.000294806
-0.000301935
-0.000308683
-0.000315059
-0.000321071
-0.000326734
-0.00033206
-0.000337065
-0.000341757
-0.000346156
-0.000350294
-0.0003542
-0.000357874
-0.000361307
-0.000364453
-0.000367351
-0.000370287
-0.000373578
-0.000377368
-0.00038162
-0.000386319
-0.000391392
-0.000396433
-0.000400308
-0.000401881
-0.000398454
0.000334687
0.000316154
0.000297573
0.000278825
0.000259846
0.000240657
0.000221349
0.000202002
0.000182656
0.000163321
0.000144006
0.00012473
0.000105523
8.64193e-05
6.74508e-05
4.86485e-05
3.00403e-05
1.16536e-05
-6.48468e-06
-2.43477e-05
-4.19094e-05
-5.9145e-05
-7.60309e-05
-9.25451e-05
-0.000108667
-0.000124378
-0.000139662
-0.000154503
-0.000168888
-0.000182807
-0.000196258
-0.000209241
-0.000221758
-0.000233816
-0.000245427
-0.000256601
-0.000267343
-0.000277661
-0.000287566
-0.000297065
-0.000306168
-0.000314883
-0.00032322
-0.000331191
-0.000338808
-0.000346087
-0.000353048
-0.000359711
-0.000366099
-0.000372231
-0.000378135
-0.000383842
-0.000389403
-0.000394868
-0.000400276
-0.000405653
-0.000411037
-0.000416615
-0.000422749
-0.000429777
-0.000437805
-0.000446949
-0.00045738
-0.000469017
-0.00048127
-0.000493211
-0.000503272
-0.000510387
-0.000511533
0.000326789
0.00030713
0.00028743
0.000267561
0.000247456
0.000227136
0.000206698
0.000186232
0.000165778
0.000145351
0.000124959
0.000104624
8.43767e-05
6.4254e-05
4.42917e-05
2.45227e-05
4.97764e-06
-1.43142e-05
-3.33239e-05
-5.20228e-05
-7.03833e-05
-8.83792e-05
-0.000105986
-0.000123181
-0.000139943
-0.000156254
-0.000172097
-0.000187458
-0.000202323
-0.000216686
-0.00023055
-0.000243917
-0.000256794
-0.000269194
-0.000281133
-0.000292623
-0.000303675
-0.000314303
-0.000324522
-0.000334345
-0.000343787
-0.000352862
-0.000361585
-0.000369974
-0.000378052
-0.000385843
-0.000393374
-0.000400668
-0.000407755
-0.000414668
-0.000421452
-0.000428165
-0.000434872
-0.00044163
-0.000448501
-0.000455658
-0.000463404
-0.000472109
-0.000482066
-0.000493456
-0.00050655
-0.000521542
-0.000538217
-0.000555995
-0.000573945
-0.000590886
-0.000605303
-0.000616207
-0.00062078
0.000316878
0.000296023
0.000275135
0.000254078
0.000232778
0.000211259
0.000189625
0.000167971
0.000146345
0.000124763
0.000103236
8.17846e-05
6.04437e-05
3.92526e-05
1.82506e-05
-2.52621e-06
-2.30445e-05
-4.32725e-05
-6.31787e-05
-8.27326e-05
-0.000101904
-0.000120666
-0.000138992
-0.000156859
-0.000174246
-0.000191134
-0.000207509
-0.000223357
-0.000238671
-0.00025345
-0.000267698
-0.000281421
-0.000294632
-0.00030735
-0.000319593
-0.000331375
-0.000342713
-0.000353626
-0.000364133
-0.000374254
-0.000384007
-0.000393413
-0.000402497
-0.000411286
-0.000419808
-0.00042809
-0.000436161
-0.000444055
-0.000451813
-0.00045949
-0.00046713
-0.000474792
-0.000482544
-0.000490532
-0.000499015
-0.000508331
-0.000518804
-0.000530689
-0.000544344
-0.000560099
-0.000578019
-0.000597773
-0.000618883
-0.000640587
-0.000661804
-0.000681408
-0.000698298
-0.000711687
-0.000719282
0.0003043
0.000282153
0.000259982
0.000237643
0.000215057
0.000192248
0.000169327
0.000146398
0.000123514
0.000100693
7.7948e-05
5.53019e-05
3.27911e-05
1.04587e-05
-1.16524e-05
-3.35023e-05
-5.50546e-05
-7.62742e-05
-9.71273e-05
-0.00011758
-0.000137602
-0.000157162
-0.000176233
-0.00019479
-0.000212811
-0.000230277
-0.00024717
-0.000263478
-0.000279198
-0.000294332
-0.000308888
-0.000322879
-0.000336326
-0.000349255
-0.000361686
-0.000373641
-0.000385146
-0.000396226
-0.000406909
-0.000417221
-0.000427192
-0.000436855
-0.000446239
-0.000455371
-0.00046428
-0.000473
-0.000481575
-0.000490052
-0.000498471
-0.000506878
-0.000515306
-0.000523859
-0.000532734
-0.000542177
-0.000552454
-0.000563824
-0.000576646
-0.000591328
-0.000608146
-0.000626984
-0.000647538
-0.000669473
-0.000692249
-0.000715055
-0.000737004
-0.000757389
-0.000775526
-0.000790778
-0.00080141
0.000289082
0.000265568
0.000242051
0.000218364
0.000194424
0.000170256
0.00014598
0.000121709
9.75035e-05
7.33848e-05
4.9367e-05
2.54753e-05
1.74885e-06
-2.17653e-05
-4.502e-05
-6.7971e-05
-9.0578e-05
-0.000112802
-0.000134606
-0.000155953
-0.000176808
-0.000197139
-0.000216915
-0.000236113
-0.000254711
-0.000272695
-0.000290049
-0.000306766
-0.000322848
-0.000338301
-0.000353137
-0.000367374
-0.000381042
-0.000394165
-0.000406768
-0.000418877
-0.000430523
-0.000441738
-0.000452561
-0.000463027
-0.000473173
-0.000483035
-0.00049265
-0.00050206
-0.000511304
-0.000520427
-0.000529477
-0.000538498
-0.000547537
-0.000556673
-0.000566013
-0.000575681
-0.000585829
-0.000596621
-0.000608313
-0.000621251
-0.00063577
-0.000651985
-0.000669702
-0.000688756
-0.000708977
-0.000730025
-0.000751347
-0.000772504
-0.000793226
-0.000813378
-0.000832358
-0.000849608
-0.000863279
0.000269503
0.000244495
0.000219483
0.000194314
0.000168893
0.000143239
0.000117479
9.1737e-05
6.60812e-05
4.05376e-05
1.51226e-05
-1.01363e-05
-3.51966e-05
-6.00066e-05
-8.45141e-05
-0.00010867
-0.000132429
-0.00015575
-0.000178589
-0.000200908
-0.000222667
-0.00024383
-0.000264363
-0.000284233
-0.000303414
-0.000321883
-0.000339627
-0.000356645
-0.000372941
-0.000388527
-0.000403424
-0.000417666
-0.000431288
-0.000444324
-0.000456815
-0.000468801
-0.000480325
-0.000491428
-0.000502148
-0.000512526
-0.000522601
-0.00053242
-0.000542033
-0.000551501
-0.000560881
-0.000570238
-0.000579641
-0.00058916
-0.000598871
-0.000608838
-0.000619131
-0.000629809
-0.000640949
-0.000652709
-0.000665293
-0.000678799
-0.000693083
-0.000708061
-0.000723722
-0.000740007
-0.000756714
-0.000773665
-0.000790909
-0.000808765
-0.000827589
-0.000847509
-0.000867891
-0.000887879
-0.000905246
0.000247037
0.000220475
0.000193964
0.000167287
0.000140343
0.000113161
8.58796e-05
5.86337e-05
3.1499e-05
4.50594e-06
-2.23267e-05
-4.89688e-05
-7.53736e-05
-0.000101484
-0.000127241
-0.00015259
-0.000177478
-0.000201857
-0.000225679
-0.000248902
-0.000271484
-0.000293391
-0.000314591
-0.000335061
-0.000354774
-0.000373711
-0.000391858
-0.000409213
-0.000425782
-0.000441577
-0.000456621
-0.000470947
-0.000484594
-0.000497614
-0.000510058
-0.000521982
-0.000533436
-0.000544473
-0.00055514
-0.000565482
-0.000575542
-0.000585354
-0.000594954
-0.000604396
-0.000613778
-0.000623235
-0.000632909
-0.000642884
-0.000653165
-0.000663707
-0.000674519
-0.000685688
-0.000697257
-0.000709128
-0.000721046
-0.000732809
-0.000744304
-0.000755503
-0.000766429
-0.000777113
-0.000787755
-0.000798833
-0.000811142
-0.000825584
-0.000842928
-0.000863374
-0.000886005
-0.000909214
-0.000930491
0.00021641
0.000188076
0.000159749
0.000131302
0.000102606
7.36644e-05
4.4622e-05
1.56329e-05
-1.32147e-05
-4.1885e-05
-7.03572e-05
-9.85988e-05
-0.00012656
-0.000154177
-0.000181386
-0.000208124
-0.000234332
-0.000259952
-0.000284925
-0.000309189
-0.000332686
-0.000355364
-0.000377182
-0.00039811
-0.00041813
-0.000437229
-0.000455402
-0.000472655
-0.000489009
-0.000504497
-0.000519153
-0.000533017
-0.000546142
-0.000558591
-0.00057044
-0.000581773
-0.000592687
-0.000603275
-0.000613626
-0.000623806
-0.00063385
-0.000643748
-0.000653463
-0.000662946
-0.000672215
-0.00068143
-0.000690884
-0.000700865
-0.000711362
-0.000722038
-0.000732584
-0.000743059
-0.000753473
-0.000763373
-0.000772277
-0.000780073
-0.000786773
-0.000792373
-0.000797065
-0.000801266
-0.000805639
-0.000811168
-0.000819146
-0.000830839
-0.000847343
-0.000868836
-0.000893744
-0.00091927
-0.000942616
0.000185049
0.000155
0.000125111
9.5053e-05
6.46882e-05
3.4056e-05
3.32359e-06
-2.73411e-05
-5.78371e-05
-8.81194e-05
-0.000118161
-0.000147926
-0.00017736
-0.000206393
-0.000234953
-0.000262971
-0.000290389
-0.000317158
-0.000343231
-0.000368551
-0.00039305
-0.000416655
-0.000439297
-0.000460922
-0.00048149
-0.000500982
-0.000519394
-0.000536738
-0.000553041
-0.000568342
-0.000582695
-0.000596163
-0.000608822
-0.000620752
-0.000632049
-0.000642819
-0.000653182
-0.000663264
-0.000673203
-0.000683125
-0.000693129
-0.000703261
-0.000713471
-0.000723599
-0.000733422
-0.0007428
-0.000751857
-0.0007611
-0.000770896
-0.00078071
-0.000789567
-0.000797226
-0.000803988
-0.000809615
-0.000813762
-0.000816437
-0.000817798
-0.000818029
-0.000817486
-0.000816765
-0.000816713
-0.000818543
-0.000823651
-0.000833316
-0.000848986
-0.000870857
-0.0008965
-0.00092185
-0.000943668
0.000134499
0.000102282
7.00214e-05
3.77342e-05
5.23155e-06
-2.75351e-05
-6.04132e-05
-9.32178e-05
-0.00012583
-0.000158191
-0.000190266
-0.000222007
-0.000253347
-0.000284202
-0.000314475
-0.000344069
-0.000372888
-0.000400836
-0.000427844
-0.000453883
-0.000478931
-0.00050294
-0.000525849
-0.000547605
-0.000568164
-0.000587487
-0.000605545
-0.000622333
-0.000637864
-0.000652175
-0.000665326
-0.000677393
-0.000688465
-0.000698643
-0.000708042
-0.000716793
-0.000725054
-0.000733025
-0.000740926
-0.000748987
-0.000757411
-0.000766319
-0.000775679
-0.000785286
-0.000794739
-0.000803449
-0.000810916
-0.000817272
-0.000823148
-0.000828476
-0.000832571
-0.000835287
-0.000836948
-0.000837729
-0.000837621
-0.000836591
-0.00083465
-0.000831964
-0.000828855
-0.00082582
-0.000823665
-0.000823664
-0.000827332
-0.000835675
-0.000849832
-0.000870404
-0.000894938
-0.000918469
-0.000937354
9.80826e-05
6.42052e-05
3.06763e-05
-3.23108e-06
-3.75659e-05
-7.21452e-05
-0.000106764
-0.000141265
-0.000175552
-0.000209572
-0.000243291
-0.000276661
-0.000309616
-0.000342076
-0.000373966
-0.000405234
-0.000435825
-0.000465613
-0.000494421
-0.000522121
-0.000548667
-0.000574033
-0.000598126
-0.000620826
-0.000642049
-0.00066175
-0.000679913
-0.000696539
-0.000711649
-0.000725295
-0.000737579
-0.000748636
-0.000758634
-0.000767754
-0.00077617
-0.00078404
-0.000791489
-0.000798604
-0.000805445
-0.000812064
-0.000818524
-0.000824805
-0.000830693
-0.00083602
-0.000840764
-0.000844857
-0.000848034
-0.000850081
-0.000851025
-0.00085105
-0.000850458
-0.000849548
-0.00084845
-0.000847152
-0.00084553
-0.000843432
-0.000840758
-0.000837539
-0.000833968
-0.000830384
-0.000827384
-0.000826064
-0.000827963
-0.00083411
-0.000845323
-0.000862759
-0.000885021
-0.000906864
-0.000923482
1.19852e-05
-2.44869e-05
-6.12503e-05
-9.81585e-05
-0.000135343
-0.000172807
-0.000210321
-0.000247634
-0.000284613
-0.000321217
-0.000357413
-0.000393137
-0.000428282
-0.000462719
-0.000496307
-0.000528895
-0.000560345
-0.000590578
-0.000619524
-0.00064703
-0.000672897
-0.000696991
-0.000719319
-0.00073993
-0.00075882
-0.00077595
-0.00079126
-0.000804684
-0.000816175
-0.000825724
-0.00083337
-0.000839215
-0.000843423
-0.000846217
-0.000847866
-0.000848673
-0.000848945
-0.000848966
-0.000848978
-0.000849178
-0.0008497
-0.000850601
-0.000851804
-0.000853163
-0.000854529
-0.000855753
-0.000856684
-0.00085715
-0.000857015
-0.000856257
-0.000854964
-0.00085329
-0.000851391
-0.000849367
-0.000847248
-0.000844979
-0.000842443
-0.000839545
-0.0008363
-0.000832874
-0.000829644
-0.000827404
-0.000827496
-0.000831316
-0.000839919
-0.000854865
-0.00087628
-0.000900671
-0.000922783
0.000168951
0.000175651
0.000182905
0.000190647
0.00019893
0.000207832
0.000217479
0.000227667
0.000238361
0.000249617
0.000261551
0.000274194
0.000287145
0.000301191
0.000314802
0.000329265
0.000343411
0.000358223
0.000372915
0.000387385
0.000402581
0.000416525
0.000430224
0.000442937
0.000455024
0.000466455
0.000476398
0.000485116
0.000493058
0.000499414
0.000503953
0.000507155
0.000509239
0.000510247
0.000509314
0.000507171
0.000504084
0.000499674
0.000494198
0.000488187
0.00048123
0.000473803
0.000466206
0.000458538
0.000449996
0.00044187
0.000433335
0.000425057
0.000416691
0.000408506
0.00040061
0.000392904
0.000385637
0.000378625
0.000371935
0.000365196
0.000358903
0.000352833
0.000347101
0.00016554
0.00017253
0.000180108
0.000188239
0.000196965
0.000206301
0.000216296
0.00022692
0.000238178
0.000250054
0.000262535
0.00027566
0.000289319
0.000303525
0.000318169
0.000333072
0.000348357
0.0003637
0.000379236
0.000394453
0.000409736
0.000424667
0.000438904
0.000452332
0.000464926
0.000476714
0.000487271
0.000496374
0.00050446
0.000511044
0.000515767
0.000519206
0.00052128
0.00052195
0.000520997
0.000518654
0.000515207
0.000510643
0.000504932
0.000498406
0.000491261
0.000483541
0.000475366
0.00046678
0.000458024
0.000449197
0.000440337
0.000431577
0.000422862
0.000414313
0.000406018
0.000397969
0.000390148
0.000382688
0.000375464
0.000368591
0.00036205
0.000355798
0.000349826
0.000162111
0.000169434
0.000177327
0.00018582
0.00019494
0.00020471
0.000215137
0.000226224
0.000237985
0.000250416
0.000263492
0.00027718
0.000291455
0.000306272
0.000321558
0.000337295
0.000353321
0.000369502
0.000385713
0.000401761
0.000417622
0.000433173
0.000448121
0.000462246
0.000475502
0.000487754
0.000498743
0.000508355
0.000516708
0.000523453
0.00052852
0.000532098
0.000534114
0.000534601
0.000533484
0.000530963
0.000527185
0.000522293
0.000516309
0.000509482
0.000501908
0.000493652
0.000484894
0.000475792
0.000466518
0.000457172
0.00044779
0.00043848
0.000429299
0.000420299
0.000411544
0.000403034
0.000394796
0.00038686
0.000379275
0.000372035
0.000365116
0.000358522
0.000352244
0.000158412
0.000166066
0.000174322
0.0001832
0.000192732
0.000202942
0.00021384
0.000225434
0.000237729
0.000250724
0.000264405
0.000278742
0.000293706
0.000309236
0.000325254
0.000341715
0.000358459
0.000375412
0.000392392
0.000409278
0.000425929
0.000442166
0.000457809
0.000472634
0.000486544
0.000499343
0.000510816
0.000520892
0.000529559
0.000536535
0.000541863
0.000545554
0.000547571
0.000547978
0.000546711
0.00054398
0.000539898
0.000534615
0.000528222
0.00052093
0.000512825
0.00050403
0.000494751
0.000485151
0.00047532
0.000465396
0.000455443
0.000445559
0.000435826
0.000426292
0.000417006
0.000407998
0.000399304
0.000390938
0.000382922
0.000375255
0.000367936
0.000360972
0.000354363
0.000154138
0.000162145
0.000170791
0.000180091
0.000190076
0.000200769
0.000212184
0.000224331
0.000237214
0.000250828
0.000265161
0.00028019
0.000295876
0.00031216
0.000328964
0.000346198
0.000363745
0.000381506
0.000399321
0.000417047
0.000434518
0.000451533
0.000467915
0.000483461
0.000498026
0.000511412
0.000523421
0.000533949
0.000542954
0.000550203
0.00055574
0.000559537
0.000561578
0.000561916
0.000560505
0.00055754
0.000553139
0.000547448
0.000540592
0.000532763
0.000524101
0.000514762
0.000504925
0.000494739
0.000484314
0.000473781
0.000463236
0.00045277
0.00044246
0.000432364
0.000422533
0.000413007
0.000403816
0.000394982
0.000386516
0.000378425
0.000370714
0.00036338
0.000356415
0.000149245
0.000157624
0.000166676
0.000176418
0.000186881
0.000198088
0.000210055
0.000222793
0.000236307
0.00025059
0.000265629
0.000281397
0.000297853
0.00031494
0.000332578
0.000350668
0.000369099
0.000387746
0.000406452
0.000425057
0.000443385
0.00046124
0.000478423
0.000494732
0.000509991
0.000524004
0.00053658
0.000547586
0.000556956
0.0005645
0.000570243
0.000574143
0.000576196
0.000576445
0.000574868
0.000571645
0.000566901
0.000560789
0.000553456
0.00054509
0.000535861
0.000525938
0.00051549
0.000504669
0.000493611
0.000482444
0.000471275
0.000460194
0.00044928
0.000438599
0.000428205
0.000418138
0.00040843
0.000399102
0.000390168