/*--------------------------------*- C++ -*----------------------------------*\
| =========                 |                                                 |
| \\      /  F ield         | OpenFOAM: The Open Source CFD Toolbox           |
|  \\    /   O peration     | Version:  2312                                  |
|   \\  /    A nd           | Website:  www.openfoam.com                      |
|    \\/     M anipulation  |                                                 |
\*---------------------------------------------------------------------------*/
FoamFile
{
    version     2.0;
    format      ascii;
    arch        "LSB;label=32;scalar=64";
    class       surfaceScalarField;
    location    "900";
    object      phi;
}
// * * * * * * * * * * * * * * * * * * * * * * * * * * * * * * * * * * * * * //

dimensions      [0 3 -1 0 0 0 0];

oriented        oriented;

internalField   nonuniform List<scalar> 
116611
(
0.00102082
0.000435864
-0.00100504
-0.000451651
0.00103655
0.000432203
-0.000447925
0.00105207
0.000428198
-0.000443719
0.00106747
0.000423842
-0.000439241
0.00108282
0.000419244
-0.000434593
0.00109815
0.000414265
-0.000429596
0.00111322
0.000408977
-0.000424048
0.00112822
0.000403338
-0.000418341
0.00114272
0.000397205
-0.000411704
0.00115707
0.000390663
-0.000405015
0.00117124
0.000383719
-0.000397885
0.00118519
0.000376369
-0.000390324
0.00119875
0.000368558
-0.00038212
0.00121192
0.000360251
-0.000373415
0.00122472
0.000351443
-0.000364247
0.00123721
0.000342203
-0.00035469
0.00124949
0.00033241
-0.000344694
0.00126137
0.000322195
-0.000334075
0.00127287
0.000311332
-0.00032283
0.00128395
0.000300046
-0.00031112
0.00129466
0.000288104
-0.000298823
0.00130472
0.000275597
-0.000285654
0.00131433
0.000262501
-0.000272108
0.00132358
0.000248908
-0.000258156
0.00133232
0.000234704
-0.000243451
0.00134064
0.000219904
-0.000228223
0.00134834
0.0002044
-0.000212103
0.00135551
0.000188377
-0.000195544
0.00136239
0.000171725
-0.000178602
0.0013685
0.000154373
-0.000160482
0.00137388
0.000136372
-0.000141757
0.00137868
0.000117616
-0.000122412
0.00138272
9.81646e-05
-0.000102206
0.00138623
7.82074e-05
-8.17132e-05
0.00138908
5.74648e-05
-6.03217e-05
0.0013912
3.61436e-05
-3.82621e-05
0.00139288
1.40732e-05
-1.5751e-05
0.0013933
-8.92728e-06
8.50224e-06
0.00139297
-3.25845e-05
3.29138e-05
0.0013917
-5.70434e-05
5.83203e-05
0.00138974
-8.20625e-05
8.40226e-05
0.00138702
-0.000107883
0.000110602
0.00138274
-0.000134615
0.00013889
0.00137777
-0.00016182
0.000166792
0.00137166
-0.000189775
0.000195892
0.00136464
-0.000218337
0.000225356
0.00135602
-0.000247734
0.000256349
0.00134633
-0.00027752
0.000287215
0.00133557
-0.000307789
0.000318549
0.00132354
-0.000338656
0.000350681
0.00131015
-0.000370067
0.000383456
0.00129533
-0.000401902
0.000416727
0.00127885
-0.000434135
0.000450611
0.00126064
-0.000466578
0.000484794
0.00124067
-0.000498956
0.000518924
0.00121955
-0.000530994
0.000552109
0.00119632
-0.000562992
0.00058623
0.00117167
-0.000594366
0.000619007
0.00114538
-0.0006252
0.000651499
0.00111705
-0.000655508
0.000683834
0.00108621
-0.000685185
0.000716025
0.00105299
-0.000713219
0.000746437
0.00101816
-0.000739218
0.000774054
0.000980659
-0.000763462
0.000800959
0.000940209
-0.000785323
0.000825773
0.000899032
-0.000803574
0.000844751
0.00085502
-0.000820189
0.000864202
0.000805736
-0.000835553
0.000884836
-0.00083621
0.000752117
0.000889828
0.00100616
0.00042
-0.000990294
0.00102185
0.000416511
0.00103737
0.000412677
0.00105271
0.000408504
0.00106796
0.000403991
0.00108306
0.000399165
0.00109804
0.000394
0.00111289
0.000388487
0.00112749
0.000382605
0.00114184
0.000376311
0.00115595
0.000369607
0.00116983
0.000362493
0.00118344
0.000354945
0.00119674
0.000346953
0.00120967
0.000338512
0.0012223
0.000329577
0.00123454
0.000320164
0.00124649
0.000310248
0.001258
0.000299823
0.00126918
0.000288862
0.00127992
0.000277368
0.00129019
0.000265328
0.00129996
0.000252728
0.00130929
0.000239576
0.00131815
0.000225847
0.00132654
0.000211514
0.00133435
0.000196591
0.00134166
0.00018107
0.00134845
0.000164928
0.00135464
0.000148183
0.00136024
0.000130774
0.00136517
0.000112684
0.00136939
9.39498e-05
0.001373
7.459e-05
0.0013759
5.45736e-05
0.00137813
3.39067e-05
0.00137963
1.25783e-05
0.00138024
-9.54291e-06
0.00138006
-3.23961e-05
0.00137896
-5.59463e-05
0.00137705
-8.01546e-05
0.00137422
-0.000105058
0.0013703
-0.00013069
0.00136543
-0.000156955
0.00135951
-0.000183848
0.00135253
-0.00021136
0.0013443
-0.000239507
0.00133495
-0.000268165
0.00132445
-0.000297291
0.0013127
-0.000326909
0.00129962
-0.000356985
0.00128515
-0.000387432
0.00126918
-0.000418164
0.00125163
-0.000449029
0.00123251
-0.000479832
0.00121191
-0.000510395
0.0011896
-0.000540683
0.0011657
-0.000570461
0.00114011
-0.00059961
0.00111264
-0.000628039
0.00108296
-0.00065551
0.00105124
-0.000681493
0.00101762
-0.000705598
0.000981751
-0.000727598
0.000943503
-0.000747075
0.000903668
-0.000763739
0.000861793
-0.000778314
0.000816677
-0.000790437
-0.000788508
0.000768975
0.000991585
0.000404138
-0.000975723
0.00100729
0.000400802
0.00102284
0.000397128
0.00103822
0.000393128
0.00105342
0.000388792
0.00106846
0.000384125
0.00108334
0.000379119
0.00109806
0.000373766
0.00111261
0.000368063
0.00112693
0.000361987
0.00114101
0.000355522
0.00115485
0.000348655
0.00116843
0.000341373
0.00118172
0.000333663
0.00119471
0.000325517
0.00120737
0.000316914
0.00121969
0.000307842
0.00123166
0.000298286
0.00124324
0.000288234
0.00125443
0.000277673
0.00126521
0.000266595
0.00127555
0.000254989
0.00128543
0.000242844
0.00129485
0.000230152
0.0013038
0.000216903
0.00131223
0.000203081
0.00132014
0.00018868
0.00132752
0.00017369
0.00133435
0.000158105
0.00134062
0.000141914
0.00134629
0.000125103
0.00135131
0.000107663
0.00135567
8.95919e-05
0.00135936
7.08972e-05
0.00136236
5.15737e-05
0.00136464
3.16231e-05
0.00136617
1.10494e-05
0.00136691
-1.02785e-05
0.00136682
-3.23059e-05
0.00136587
-5.49981e-05
0.00136406
-7.83429e-05
0.00136134
-0.00010234
0.00135765
-0.000126999
0.00135298
-0.000152282
0.00134729
-0.000178159
0.00134054
-0.000204617
0.00133268
-0.00023164
0.00132368
-0.00025917
0.00131354
-0.00028715
0.00130219
-0.000315557
0.00128955
-0.000344351
0.00127558
-0.000373455
0.00126018
-0.00040277
0.00124332
-0.000432161
0.00122495
-0.000461467
0.00120509
-0.000490536
0.00118366
-0.000519248
0.00116063
-0.000547436
0.00113596
-0.000574937
0.00110951
-0.000601592
0.00108115
-0.00062715
0.00105087
-0.000651217
0.00101869
-0.000673412
0.000984497
-0.000693407
0.00094835
-0.000710928
0.000910624
-0.000726013
0.000871074
-0.000738763
0.000828503
-0.000747866
-0.00074266
0.000782655
0.000977471
0.000388331
-0.000961664
0.00099316
0.000385113
0.00100871
0.000381579
0.0010241
0.000377738
0.00103931
0.00037358
0.00105434
0.000369093
0.00106919
0.000364273
0.00108385
0.000359109
0.00109831
0.000353596
0.00111257
0.000347725
0.00112661
0.000341484
0.00114041
0.000334858
0.00115394
0.000327836
0.00116721
0.000320402
0.00118018
0.000312546
0.00119284
0.000304255
0.00120516
0.000295513
0.00121714
0.000286309
0.00122875
0.000276628
0.00123996
0.000266459
0.00125077
0.000255789
0.00126115
0.000244609
0.00127108
0.000232908
0.00128056
0.000220677
0.00128956
0.000207906
0.00129805
0.000194584
0.00130603
0.0001807
0.00131348
0.000166247
0.00132036
0.000151216
0.00132668
0.000135598
0.0013324
0.000119386
0.00133749
0.000102572
0.00134193
8.51512e-05
0.0013457
6.71248e-05
0.00134879
4.84887e-05
0.00135116
2.92542e-05
0.00135279
9.4192e-06
0.00135365
-1.11387e-05
0.0013537
-3.23578e-05
0.00135292
-5.42164e-05
0.00135128
-7.67047e-05
0.00134875
-9.98157e-05
0.0013453
-0.000123543
0.00134088
-0.000147865
0.00133547
-0.000172754
0.00132905
-0.000198189
0.00132155
-0.000224144
0.00131296
-0.000250575
0.00130323
-0.000277428
0.00129234
-0.000304661
0.00128021
-0.000332221
0.00126678
-0.000360032
0.00125201
-0.000387993
0.00123583
-0.000415984
0.00121822
-0.000443861
0.00119917
-0.00047148
0.00117862
-0.0004987
0.00115655
-0.000525361
0.0011329
-0.00055129
0.0011076
-0.000576296
0.00108057
-0.000600118
0.00105177
-0.00062241
0.00102117
-0.000642816
0.000988801
-0.000661038
0.000954814
-0.000676941
0.000919394
-0.000690593
0.000882122
-0.000701492
0.000841699
-0.000707443
-0.000698886
0.000797925
0.000963917
0.000372593
-0.00094818
0.000979553
0.000369477
0.000995067
0.000366065
0.00101044
0.000362365
0.00102565
0.000358369
0.00104068
0.000354062
0.00105552
0.000349432
0.00107016
0.00034447
0.00108459
0.000339166
0.00109881
0.00033351
0.0011128
0.000327495
0.00112655
0.000321109
0.00114004
0.000314341
0.00115326
0.000307179
0.0011662
0.000299611
0.00117883
0.000291624
0.00119114
0.000283206
0.0012031
0.000274344
0.00121471
0.000265025
0.00122593
0.000255236
0.00123675
0.000244967
0.00124715
0.000234207
0.00125712
0.000222944
0.00126662
0.000211168
0.00127566
0.000198871
0.0012842
0.000186041
0.00129223
0.00017267
0.00129973
0.000158748
0.00130668
0.000144268
0.00131306
0.000129222
0.00131884
0.000113603
0.00132401
9.74044e-05
0.00132854
8.06234e-05
0.0013324
6.32566e-05
0.00133559
4.53008e-05
0.00133807
2.67729e-05
0.00133983
7.66276e-06
0.00134083
-1.21402e-05
0.00134105
-3.25728e-05
0.00134045
-5.36185e-05
0.00133901
-7.52682e-05
0.00133671
-9.7512e-05
0.0013335
-0.000120338
0.00132937
-0.000143728
0.00132427
-0.000167657
0.00131818
-0.000192099
0.00131106
-0.000217023
0.00130287
-0.000242388
0.00129358
-0.000268143
0.00128316
-0.000294237
0.00127155
-0.000320609
0.0012587
-0.00034718
0.00124456
-0.000373855
0.00122909
-0.000400518
0.00121227
-0.000427039
0.00119407
-0.000453278
0.00117446
-0.000479089
0.00115341
-0.000504313
0.00113089
-0.000528769
0.00110684
-0.000552246
0.0010812
-0.000574476
0.00105392
-0.000595139
0.00102504
-0.00061393
0.000994642
-0.000630642
0.000962909
-0.000645208
0.000929797
-0.000657481
0.000894551
-0.000666246
0.000855802
-0.000668694
-0.000657093
0.00081401
0.000950924
0.000356901
-0.000935231
0.000966507
0.000353894
0.000981971
0.0003506
0.000997304
0.000347033
0.00101249
0.000343185
0.0010275
0.000339044
0.00104234
0.000334599
0.00105697
0.000329836
0.00107139
0.000324744
0.00108559
0.000319313
0.00109955
0.000313532
0.00111327
0.000307392
0.00112673
0.000300882
0.00113992
0.000293992
0.00115282
0.000286711
0.00116541
0.000279026
0.00117769
0.000270927
0.00118963
0.000262401
0.00120122
0.000253437
0.00121244
0.000244022
0.00122326
0.000234146
0.00123367
0.000223797
0.00124365
0.000212964
0.00125318
0.000201638
0.00126224
0.000189807
0.00127082
0.000177464
0.00127889
0.000164597
0.00128644
0.0001512
0.00129344
0.000137265
0.00129988
0.000122783
0.00130573
0.000107749
0.00131098
9.21575e-05
0.0013156
7.6005e-05
0.00131957
5.92874e-05
0.00132287
4.20026e-05
0.00132547
2.41711e-05
0.00132736
5.76917e-06
0.00132852
-1.32957e-05
0.00132891
-3.29619e-05
0.0013285
-5.32153e-05
0.00132728
-7.40467e-05
0.00132522
-9.54451e-05
0.00132227
-0.000117396
0.00131843
-0.000139882
0.00131365
-0.000162878
0.00130791
-0.000186356
0.00130117
-0.000210283
0.0012934
-0.000234617
0.00128456
-0.00025931
0.00127463
-0.000284305
0.00126356
-0.000309536
0.0012513
-0.000334926
0.00123783
-0.000360382
0.00122311
-0.000385794
0.00120711
-0.00041104
0.00118982
-0.000435984
0.00117121
-0.000460481
0.00115126
-0.000484367
0.00112995
-0.000507453
0.00110722
-0.000529516
0.00108303
-0.000550288
0.00105737
-0.000569486
0.00103033
-0.00058689
0.00100206
-0.000602363
0.000972607
-0.00061576
0.000941621
-0.000626495
0.000908042
-0.000632666
0.000870854
-0.000631507
-0.000617859
0.00083162
0.000938476
0.000341224
-0.000922799
0.000954027
0.000338343
0.00096945
0.000335177
0.000984737
0.000331745
0.000999879
0.000328042
0.00101486
0.000324061
0.00102967
0.00031979
0.00104429
0.000315218
0.0010587
0.000310334
0.00107289
0.000305125
0.00108684
0.00029958
0.00110054
0.000293689
0.00111398
0.000287442
0.00112715
0.000280827
0.00114003
0.000273835
0.0011526
0.000266453
0.00116485
0.000258673
0.00117677
0.000250482
0.00118834
0.000241869
0.00119954
0.000232823
0.00121035
0.000223333
0.00122076
0.000213389
0.00123074
0.00020298
0.00124029
0.000192095
0.00124937
0.000180724
0.00125797
0.00016886
0.00126608
0.000156491
0.00127367
0.000143611
0.00128072
0.000130211
0.00128722
0.000116286
0.00129314
0.000101828
0.00129847
8.68326e-05
0.00130317
7.12972e-05
0.00130724
5.52167e-05
0.00131066
3.85911e-05
0.00131338
2.14427e-05
0.00131542
3.73152e-06
0.00131674
-1.4613e-05
0.00131731
-3.35321e-05
0.00131711
-5.30135e-05
0.00131611
-7.3048e-05
0.00131429
-9.36237e-05
0.00131162
-0.000114726
0.00130807
-0.000136334
0.00130362
-0.000158425
0.00129823
-0.00018097
0.00129188
-0.000203934
0.00128454
-0.000227275
0.00127617
-0.000250944
0.00126675
-0.000274885
0.00125625
-0.00029903
0.00124462
-0.000323302
0.00123185
-0.000347612
0.00121791
-0.000371855
0.00120279
-0.000395913
0.00118646
-0.000419655
0.00116891
-0.000442934
0.00115013
-0.000465581
0.00113007
-0.000487401
0.00110872
-0.000508165
0.00108606
-0.000527626
0.00106214
-0.000545566
0.00103709
-0.000561838
0.00101101
-0.000576282
0.000983725
-0.000588478
0.000954512
-0.000597282
0.00092227
-0.000600424
0.000886901
-0.000596138
-0.000582002
0.000851044
0.000926572
0.000325548
-0.000910896
0.000942114
0.000322802
0.000957514
0.000319777
0.000972769
0.00031649
0.000987872
0.00031294
0.00100281
0.000309119
0.00101758
0.00030502
0.00103217
0.000300634
0.00104655
0.000295949
0.00106072
0.000290956
0.00107466
0.000285642
0.00108835
0.000279998
0.00110178
0.000274012
0.00111493
0.000267673
0.0011278
0.000260971
0.00114036
0.000253895
0.0011526
0.000246434
0.0011645
0.000238577
0.00117605
0.000230315
0.00118724
0.000221635
0.00119805
0.000212529
0.00120845
0.000202985
0.00121844
0.000192993
0.00122799
0.000182544
0.00123708
0.000171627
0.00124571
0.000160234
0.00125384
0.000148356
0.00126147
0.000135985
0.00126857
0.000123113
0.00127512
0.000109734
0.00128111
9.58413e-05
0.00128651
8.14317e-05
0.0012913
6.65014e-05
0.00129548
5.10453e-05
0.001299
3.50659e-05
0.00130186
1.85856e-05
0.00130404
1.54738e-06
0.00130552
-1.60944e-05
0.00130628
-3.42852e-05
0.00130628
-5.30151e-05
0.0013055
-7.22744e-05
0.00130393
-9.20509e-05
0.00130154
-0.000112329
0.00129829
-0.000133088
0.00129417
-0.000154305
0.00128915
-0.000175949
0.0012832
-0.000197987
0.0012763
-0.000220375
0.00126842
-0.000243067
0.00125954
-0.000266004
0.00124964
-0.000289123
0.00123868
-0.000312346
0.00122665
-0.000335587
0.00121354
-0.000358745
0.00119934
-0.000381705
0.00118402
-0.000404338
0.00116758
-0.000426493
0.00115
-0.000447999
0.00113125
-0.000468658
0.00111134
-0.000488255
0.00109031
-0.00050659
0.00106825
-0.000523509
0.00104528
-0.000538872
0.00102133
-0.000552329
0.000995894
-0.000563041
0.000968039
-0.000569428
0.000937139
-0.000569524
0.000904302
-0.000563301
-0.000550746
0.000873046
0.000915232
0.000309871
-0.000899556
0.000930772
0.000307261
0.000946168
0.000304382
0.000961409
0.000301249
0.000976488
0.00029786
0.000991399
0.000294209
0.00100613
0.000290288
0.00102068
0.000286088
0.00103502
0.000281603
0.00104916
0.000276821
0.00106307
0.000271734
0.00107673
0.000266331
0.00109014
0.000260602
0.00110328
0.000254535
0.00111613
0.00024812
0.00112868
0.000241347
0.00114091
0.000234204
0.00115281
0.000226681
0.00116435
0.000218768
0.00117554
0.000210453
0.00118634
0.000201728
0.00119674
0.000192582
0.00120673
0.000183004
0.00121629
0.000172985
0.0012254
0.000162517
0.00123404
0.000151589
0.00124221
0.000140194
0.00124987
0.000128324
0.00125701
0.000115971
0.00126361
0.000103129
0.00126966
8.97929e-05
0.00127513
7.59578e-05
0.00128001
6.16204e-05
0.00128428
4.67757e-05
0.00128792
3.14295e-05
0.00129091
1.56011e-05
0.00129324
-7.83014e-07
0.00129488
-1.77389e-05
0.00129582
-3.52209e-05
0.00129602
-5.32201e-05
0.00129547
-7.17269e-05
0.00129415
-9.07286e-05
0.00129203
-0.000110209
0.00128909
-0.000130149
0.00128531
-0.000150524
0.00128067
-0.000171304
0.00127514
-0.000192456
0.0012687
-0.000213938
0.00126134
-0.000235703
0.00125303
-0.000257695
0.00124376
-0.000279851
0.00123351
-0.000302096
0.00122227
-0.000324346
0.00121002
-0.000346502
0.00119677
-0.000368452
0.00118249
-0.000390063
0.00116719
-0.000411186
0.00115084
-0.00043165
0.00113345
-0.000451271
0.00111507
-0.00046987
0.00109578
-0.000487299
0.00107568
-0.000503417
0.00105476
-0.000517951
0.00103264
-0.000530202
0.00100856
-0.000538964
0.000981815
-0.000542684
0.000952826
-0.000540535
0.000923807
-0.000534281
-0.000525845
0.000898906
0.000904496
0.000294207
-0.000888831
0.000920031
0.000291727
0.000935423
0.00028899
0.00095066
0.000286012
0.000965731
0.000282788
0.000980628
0.000279313
0.000995339
0.000275576
0.00100986
0.000271571
0.00102417
0.000267289
0.00103827
0.000262723
0.00105214
0.000257862
0.00106577
0.000252699
0.00107915
0.000247223
0.00109226
0.000241425
0.00110509
0.000235293
0.00111761
0.000228819
0.00112983
0.00022199
0.00114171
0.000214797
0.00115325
0.00020723
0.00116443
0.000199278
0.00117522
0.00019093
0.00118563
0.000182177
0.00119562
0.00017301
0.00120519
0.000163418
0.00121431
0.000153393
0.00122298
0.000142925
0.00123117
0.000132007
0.00123886
0.000120631
0.00124604
0.000108789
0.00125269
9.64754e-05
0.0012588
8.36849e-05
0.00126435
7.04133e-05
0.00126931
5.66568e-05
0.00127368
4.24104e-05
0.00127742
2.76843e-05
0.00128053
1.24904e-05
0.00128301
-3.25848e-06
0.00128481
-1.9546e-05
0.00128593
-3.63389e-05
0.00128634
-5.36293e-05
0.00128602
-7.14075e-05
0.00128496
-8.9661e-05
0.00128312
-0.000108374
0.0012805
-0.000127527
0.00127707
-0.000147096
0.00127282
-0.000167053
0.00126772
-0.000187363
0.00126177
-0.000207988
0.00125495
-0.00022888
0.00124724
-0.000249987
0.00123864
-0.000271244
0.00122912
-0.000292582
0.00121869
-0.000313916
0.00120734
-0.000335149
0.00119505
-0.000356168
0.00118184
-0.000376844
0.00116768
-0.000397031
0.0011526
-0.000416572
0.00113665
-0.000435315
0.00111989
-0.000453119
0.00110244
-0.000469848
0.00108428
-0.000485257
0.00106512
-0.000498789
0.00104431
-0.000509396
0.00102121
-0.000515855
0.000995868
-0.000517346
0.000970055
-0.000514722
0.000946758
-0.000510984
-0.000509251
0.000930165
0.000894416
0.000278562
-0.000878772
0.000909935
0.000276208
0.000925316
0.000273609
0.000940546
0.000270781
0.000955613
0.000267722
0.000970503
0.000264422
0.000985207
0.000260873
0.000999711
0.000257067
0.00101401
0.000252994
0.00102808
0.000248648
0.00104193
0.000244019
0.00105553
0.000239098
0.00106887
0.000233878
0.00108195
0.000228347
0.00109474
0.000222498
0.00110724
0.00021632
0.00111943
0.000209802
0.00113129
0.000202936
0.00114281
0.000195711
0.00115397
0.000188116
0.00116476
0.000180142
0.00117516
0.000171779
0.00118515
0.000163017
0.00119473
0.000153847
0.00120386
0.000144259
0.00121254
0.000134245
0.00122075
0.000123797
0.00122847
0.000112907
0.00123569
0.000101569
0.00124239
8.97746e-05
0.00124856
7.75201e-05
0.00125417
6.4801e-05
0.00125921
5.16129e-05
0.00126367
3.79518e-05
0.00126752
2.38317e-05
0.00127076
9.25244e-06
0.00127338
-5.87821e-06
0.00127535
-2.15162e-05
0.00127666
-3.76415e-05
0.00127727
-5.42466e-05
0.00127719
-7.13222e-05
0.00127638
-8.88561e-05
0.00127484
-0.000106833
0.00127255
-0.000125234
0.00126949
-0.000144035
0.00126565
-0.00016321
0.00126101
-0.000182725
0.00125556
-0.000202542
0.0012493
-0.000222616
0.00124221
-0.000242895
0.00123428
-0.000263318
0.00122551
-0.000283814
0.0012159
-0.000304302
0.00120544
-0.000324687
0.00119412
-0.000344856
0.00118197
-0.000364689
0.00116899
-0.000384056
0.00115525
-0.000402827
0.00114081
-0.000420881
0.00112577
-0.000438079
0.00111012
-0.000454196
0.00109361
-0.000468749
0.0010757
-0.000480875
0.00105578
-0.000489477
0.00103385
-0.000493921
0.00101124
-0.000494743
0.000990811
-0.000494288
0.000975657
-0.00049583
-0.000503199
0.000969604
0.000885034
0.00026294
-0.000869412
0.000900533
0.00026071
0.000915896
0.000258246
0.000931112
0.000255565
0.000946168
0.000252666
0.000961051
0.000249539
0.000975748
0.000246176
0.000990247
0.000242568
0.00100454
0.000238706
0.0010186
0.000234583
0.00103243
0.000230188
0.00104601
0.000225515
0.00105934
0.000220553
0.00107239
0.000215294
0.00108516
0.000209729
0.00109763
0.000203848
0.00110979
0.000197642
0.00112163
0.000191101
0.00113312
0.000184215
0.00114426
0.000176975
0.00115503
0.000169371
0.00116542
0.000161393
0.00117541
0.000153032
0.00118497
0.000144278
0.00119411
0.000135122
0.0012028
0.000125556
0.00121103
0.000115571
0.00121877
0.00010516
0.00122602
9.4316e-05
0.00123277
8.3032e-05
0.00123898
7.13029e-05
0.00124466
5.91248e-05
0.00124978
4.64921e-05
0.00125433
3.3403e-05
0.00125829
1.98741e-05
0.00126166
5.8844e-06
0.00126442
-8.64214e-06
0.00126656
-2.36511e-05
0.00126805
-3.91314e-05
0.00126887
-5.50762e-05
0.00126903
-7.14765e-05
0.00126849
-8.83207e-05
0.00126725
-0.000105594
0.0012653
-0.000123278
0.00126261
-0.00014135
0.00125919
-0.000159785
0.00125501
-0.000178549
0.00125008
-0.000197606
0.00124437
-0.000216914
0.0012379
-0.00023642
0.00123065
-0.000256067
0.00122262
-0.000275786
0.00121381
-0.000295496
0.00120423
-0.000315106
0.00119389
-0.000334515
0.00118282
-0.00035362
0.00117108
-0.000372316
0.00115875
-0.000390493
0.00114589
-0.000408021
0.00113249
-0.000424678
0.00111833
-0.00044004
0.00110295
-0.00045337
0.00108584
-0.000463758
0.00106699
-0.000470635
0.00104761
-0.000474533
0.00103026
-0.0004774
0.00101811
-0.000482138
0.00101316
-0.000490881
-0.000504398
0.00101436
0.000876384
0.000247336
-0.00086078
0.000891863
0.00024523
0.000907207
0.000242901
0.000922406
0.000240367
0.000937446
0.000237626
0.000952315
0.000234669
0.000967002
0.000231489
0.000981493
0.000228077
0.000995774
0.000224425
0.00100983
0.000220524
0.00102366
0.000216365
0.00103723
0.000211939
0.00105055
0.000207238
0.00106359
0.000202253
0.00107634
0.000196974
0.0010888
0.000191393
0.00110094
0.0001855
0.00111276
0.000179285
0.00112423
0.000172739
0.00113535
0.000165853
0.00114611
0.000158618
0.00115648
0.000151023
0.00116645
0.000143059
0.00117601
0.000134717
0.00118515
0.000125988
0.00119384
0.000116863
0.00120208
0.000107335
0.00120984
9.73952e-05
0.00121712
8.70367e-05
0.0012239
7.6253e-05
0.00123016
6.50388e-05
0.0012359
5.33895e-05
0.00124109
4.12991e-05
0.00124573
2.87688e-05
0.00124979
1.58146e-05
0.00125328
2.38891e-06
0.00125619
-1.15482e-05
0.00125849
-2.59492e-05
0.00126016
-4.08075e-05
0.0012612
-5.61171e-05
0.0012616
-7.18695e-05
0.00126133
-8.80535e-05
0.00126039
-0.000104655
0.00125877
-0.000121657
0.00125645
-0.000139037
0.00125344
-0.00015677
0.00124972
-0.000174826
0.00124528
-0.00019317
0.00124013
-0.00021176
0.00123425
-0.000230547
0.00122766
-0.000249475
0.00122035
-0.000268477
0.00121234
-0.00028748
0.00120364
-0.000306404
0.00119429
-0.000325167
0.00118435
-0.000343686
0.0011739
-0.000361867
0.00116299
-0.000379582
0.00115159
-0.000396613
0.00113948
-0.000412573
0.00112629
-0.000426846
0.0011116
-0.00043868
0.0010955
-0.000447665
0.00107917
-0.000454305
0.00106504
-0.000460396
0.00105619
-0.000468557
0.00105485
-0.000480799
0.00106002
-0.000496046
-0.000513067
0.00106869
0.000868498
0.000231747
-0.00085291
0.000883962
0.000229767
0.000899289
0.000227573
0.000914471
0.000225186
0.000929494
0.000222602
0.000944348
0.000219815
0.00095902
0.000216817
0.000973497
0.0002136
0.000987767
0.000210155
0.00100182
0.000206474
0.00101563
0.000202549
0.0010292
0.00019837
0.00104251
0.00019393
0.00105554
0.000189219
0.00106829
0.000184227
0.00108074
0.000178946
0.00109287
0.000173367
0.00110468
0.000167479
0.00111614
0.000161275
0.00112725
0.000154743
0.00113799
0.000147875
0.00114835
0.000140662
0.00115832
0.000133093
0.00116787
0.000125161
0.00117701
0.000116855
0.0011857
0.000108168
0.00119395
9.90906e-05
0.00120173
8.96153e-05
0.00120903
7.97348e-05
0.00121584
6.94426e-05
0.00122214
5.87331e-05
0.00122793
4.76009e-05
0.00123319
3.60401e-05
0.00123791
2.40563e-05
0.00124206
1.16574e-05
0.00124568
-1.2258e-06
0.00124872
-1.4589e-05
0.00125117
-2.84022e-05
0.00125302
-4.2661e-05
0.00125427
-5.73596e-05
0.00125489
-7.24903e-05
0.00125488
-8.80425e-05
0.00125422
-0.000104003
0.00125292
-0.000120355
0.00125097
-0.000137079
0.00124834
-0.000154149
0.00124506
-0.000171539
0.0012411
-0.000189214
0.00123647
-0.000207134
0.00123118
-0.000225253
0.00122523
-0.00024352
0.00121862
-0.000261874
0.0012114
-0.000280255
0.0012036
-0.000298603
0.00119528
-0.00031685
0.00118651
-0.000334914
0.00117731
-0.000352669
0.00116763
-0.000369901
0.00115727
-0.000386254
0.00114592
-0.000401219
0.0011333
-0.000414234
0.00111965
-0.000425027
0.00110619
-0.000434203
0.00109531
-0.000443424
0.00108995
-0.000455042
0.00109217
-0.000470771
0.00110085
-0.00048948
0.00111162
-0.000506814
-0.00051866
0.00111721
0.000861424
0.000216173
-0.000845849
0.000876873
0.000214318
0.000892186
0.00021226
0.000907352
0.000210019
0.00092236
0.000207594
0.000937199
0.000204977
0.000951855
0.000202161
0.000966317
0.000199138
0.000980572
0.0001959
0.000994608
0.000192438
0.00100841
0.000188746
0.00102197
0.000184813
0.00103527
0.000180632
0.00104829
0.000176194
0.00106103
0.000171489
0.00107347
0.000166508
0.00108559
0.000161242
0.00109739
0.000155682
0.00110885
0.000149818
0.00111995
0.00014364
0.00113068
0.00013714
0.00114104
0.000130308
0.001151
0.000123134
0.00116055
0.000115609
0.00116968
0.000107724
0.00117838
9.94704e-05
0.00118663
9.08396e-05
0.00119442
8.18235e-05
0.00120174
7.24146e-05
0.00120858
6.26061e-05
0.00121492
5.23923e-05
0.00122075
4.17666e-05
0.00122607
3.07243e-05
0.00123085
1.9275e-05
0.0012351
7.40923e-06
0.00123882
-4.94542e-06
0.00124198
-1.77514e-05
0.00124458
-3.09964e-05
0.00124659
-4.46771e-05
0.00124802
-5.87883e-05
0.00124885
-7.33228e-05
0.00124908
-8.82709e-05
0.0012487
-0.00010362
0.0012477
-0.000119355
0.00124608
-0.000135457
0.00124383
-0.000151902
0.00124096
-0.000168665
0.00123746
-0.000185714
0.00123333
-0.000203012
0.0012286
-0.000220518
0.00122327
-0.000238188
0.00121737
-0.000255978
0.00121096
-0.000273841
0.00120408
-0.000291724
0.00119678
-0.00030955
0.00118906
-0.000327193
0.00118084
-0.000344446
0.00117192
-0.000360987
0.00116208
-0.000376411
0.00115121
-0.000390352
0.00113973
-0.000402749
0.00112898
-0.000414278
0.00112134
-0.000426568
0.00111963
-0.000441709
0.00112553
-0.000460939
0.00113763
-0.000482872
0.00115083
-0.000502688
0.00115862
-0.000514601
-0.000514719
0.00115468
0.000855209
0.000200609
-0.000839645
0.000870647
0.000198881
0.000885948
0.000196959
0.000901101
0.000194866
0.000916096
0.000192599
0.000930921
0.000190153
0.000945562
0.000187519
0.000960009
0.000184691
0.000974249
0.00018166
0.00098827
0.000178418
0.00100206
0.000174958
0.0010156
0.000171271
0.00102888
0.000167349
0.00104189
0.000163183
0.00105462
0.000158764
0.00106704
0.000154083
0.00107915
0.00014913
0.00109094
0.000143896
0.00110238
0.000138373
0.00111348
0.000132549
0.0011242
0.000126416
0.00113454
0.000119964
0.0011445
0.000113183
0.00115404
0.000106064
0.00116317
9.85977e-05
0.00117186
9.0775e-05
0.00118011
8.25872e-05
0.00118791
7.40258e-05
0.00119524
6.5083e-05
0.0012021
5.57518e-05
0.00120847
4.60256e-05
0.00121434
3.58969e-05
0.0012197
2.5364e-05
0.00122453
1.44361e-05
0.00122887
3.07752e-06
0.00123267
-8.75418e-06
0.00123594
-2.10194e-05
0.00123866
-3.37149e-05
0.00124082
-4.6838e-05
0.00124242
-6.03844e-05
0.00124344
-7.43475e-05
0.00124389
-8.87186e-05
0.00124376
-0.000103486
0.00124304
-0.000118635
0.00124173
-0.000134149
0.00123983
-0.000150007
0.00123735
-0.000166183
0.00123429
-0.000182651
0.00123065
-0.000199378
0.00122647
-0.000216334
0.00122177
-0.000233486
0.00121659
-0.000250801
0.00121098
-0.000268229
0.00120495
-0.000285695
0.00119847
-0.000303069
0.00119143
-0.000320158
0.00118368
-0.00033669
0.00117506
-0.000352372
0.00116568
-0.000367031
0.00115618
-0.000380847
0.00114804
-0.000394613
0.00114364
-0.00040988
0.00114552
-0.000428448
0.00115484
-0.00045103
0.00116962
-0.000475711
0.00118444
-0.000497696
0.00119276
-0.000511003
0.00118924
-0.000511082
-0.000496205
0.00117072
0.000849902
0.000185048
-0.000834341
0.000865334
0.000183449
0.000880628
0.000181665
0.000895773
0.00017972
0.000910758
0.000177614
0.000925572
0.000175339
0.000940202
0.000172889
0.000954636
0.000170257
0.000968862
0.000167434
0.000982867
0.000164413
0.000996639
0.000161186
0.00101016
0.000157746
0.00102343
0.000154084
0.00103642
0.000150191
0.00104913
0.000146058
0.00106154
0.000141676
0.00107363
0.000137037
0.00108539
0.00013213
0.00109682
0.000126947
0.00110789
0.000121476
0.0011186
0.00011571
0.00112892
0.000109638
0.00113886
0.000103249
0.00114839
9.65353e-05
0.0011575
8.94861e-05
0.00116618
8.20923e-05
0.00117442
7.43446e-05
0.00118222
6.62343e-05
0.00118955
5.7753e-05
0.0011964
4.88934e-05
0.00120278
3.96476e-05
0.00120867
3.00082e-05
0.00121406
1.99778e-05
0.00121894
9.55482e-06
0.00122333
-1.3163e-06
0.00122721
-1.2633e-05
0.00123057
-2.43743e-05
0.00123339
-3.65391e-05
0.00123568
-4.91255e-05
0.00123742
-6.21299e-05
0.00123862
-7.55465e-05
0.00123927
-8.93672e-05
0.00123937
-0.000103582
0.00123891
-0.000118176
0.00123789
-0.000133136
0.00123633
-0.000148441
0.00123422
-0.000164073
0.00123157
-0.000180008
0.00122842
-0.000196225
0.00122479
-0.000212701
0.00122071
-0.000229404
0.00121619
-0.000246286
0.00121123
-0.000263267
0.00120575
-0.000280218
0.00119965
-0.000296967
0.00119281
-0.000313315
0.00118521
-0.000329096
0.00117718
-0.00034434
0.0011696
-0.000359448
0.0011641
-0.000375349
0.00116295
-0.000393461
0.00116822
-0.000415157
0.00118032
-0.000440541
0.00119648
-0.000467197
0.00121106
-0.00049029
0.00121766
-0.000504295
0.0012115
-0.000504837
0.00119067
-0.000490259
-0.000460136
0.0011546
0.000845544
0.000169484
-0.00082998
0.000860979
0.000168015
0.000876273
0.000166371
0.000891416
0.000164577
0.000906398
0.000162632
0.000921207
0.000160531
0.00093583
0.000158266
0.000950255
0.000155831
0.000964471
0.000153218
0.000978465
0.000150419
0.000992223
0.000147428
0.00100573
0.000144236
0.00101898
0.000140835
0.00103196
0.000137216
0.00104464
0.000133372
0.00105703
0.000129291
0.0010691
0.000124967
0.00108084
0.000120388
0.00109224
0.000115546
0.00110329
0.000110431
0.00111396
0.000105032
0.00112426
9.93397e-05
0.00113417