/*--------------------------------*- C++ -*----------------------------------*\
| =========                 |                                                 |
| \\      /  F ield         | OpenFOAM: The Open Source CFD Toolbox           |
|  \\    /   O peration     | Version:  2312                                  |
|   \\  /    A nd           | Website:  www.openfoam.com                      |
|    \\/     M anipulation  |                                                 |
\*---------------------------------------------------------------------------*/
FoamFile
{
    version     2.0;
    format      ascii;
    arch        "LSB;label=32;scalar=64";
    class       volVectorField;
    location    "900";
    object      U;
}
// * * * * * * * * * * * * * * * * * * * * * * * * * * * * * * * * * * * * * //

dimensions      [0 1 -1 0 0 0 0];

internalField   nonuniform List<vector> 
76025
(
(0.0363894 -0.00470501 0)
(0.0365476 -0.00476243 7.84437e-22)
(0.0367075 -0.00481734 0)
(0.0368683 -0.00486802 0)
(0.0370398 -0.00491371 -1.3704e-21)
(0.0372141 -0.00494878 -2.53879e-21)
(0.0373937 -0.00498731 4.32195e-21)
(0.0375777 -0.00501461 -1.80021e-21)
(0.0377529 -0.00504268 -5.41218e-22)
(0.0379292 -0.00506261 5.07731e-22)
(0.0381095 -0.00507644 1.59525e-23)
(0.0382937 -0.00508263 1.29382e-21)
(0.0384767 -0.00508668 -1.7269e-21)
(0.0386563 -0.00508125 0)
(0.038832 -0.00506737 3.40614e-22)
(0.0390089 -0.00505485 0)
(0.0391863 -0.00502664 0)
(0.039366 -0.0050015 0)
(0.0395426 -0.00496401 2.43899e-22)
(0.0397176 -0.00492755 -1.84675e-22)
(0.0398904 -0.00487836 -1.53573e-22)
(0.0400601 -0.00482712 -4.04762e-22)
(0.0402246 -0.00476494 2.50464e-22)
(0.0403887 -0.00469501 2.03829e-22)
(0.0405508 -0.00462348 -5.49248e-23)
(0.0407118 -0.00454553 -4.50835e-23)
(0.0408694 -0.00445255 1.6489e-23)
(0.0410244 -0.00435825 -2.98274e-23)
(0.0411792 -0.00425307 2.94833e-23)
(0.0413327 -0.00413279 -5.21218e-23)
(0.041474 -0.00403054 -8.07473e-23)
(0.0416084 -0.00391998 2.71352e-22)
(0.0417371 -0.00379234 -4.31076e-22)
(0.0418618 -0.00366372 -9.316e-23)
(0.0419835 -0.00352151 4.88159e-22)
(0.0421004 -0.00337992 1.02717e-23)
(0.0422142 -0.00322858 -1.01547e-22)
(0.0423195 -0.00307586 6.74612e-23)
(0.0424097 -0.00292763 1.26418e-23)
(0.0424883 -0.00276761 -9.57731e-23)
(0.04256 -0.00260348 6.55704e-23)
(0.0426287 -0.00243595 -3.04098e-23)
(0.0426813 -0.00226381 6.17226e-23)
(0.0427155 -0.00209258 -1.23685e-22)
(0.0427383 -0.00191304 -1.36542e-22)
(0.0427516 -0.00173358 2.28948e-22)
(0.0427469 -0.00155155 2.63459e-22)
(0.0427173 -0.00136526 -8.04211e-22)
(0.0426733 -0.00117732 4.46946e-22)
(0.0426157 -0.000990407 -6.1653e-23)
(0.0425381 -0.000801513 -1.16256e-21)
(0.0424372 -0.000613542 -3.82621e-22)
(0.0423097 -0.000431953 4.57997e-22)
(0.04215 -0.000253075 0)
(0.0419487 -6.71935e-05 -2.71004e-22)
(0.0417211 0.000123943 -3.28776e-22)
(0.0414598 0.000312426 2.34042e-23)
(0.0411544 0.000506597 -1.78063e-22)
(0.0408134 0.00070147 2.53691e-23)
(0.0404312 0.000887981 1.3592e-22)
(0.0400011 0.00104042 7.06425e-23)
(0.0394812 0.00121573 -2.80662e-22)
(0.0388978 0.0013823 0)
(0.038255 0.0015346 -2.22596e-21)
(0.037514 0.00166503 1.44767e-21)
(0.0366749 0.00181895 -6.44765e-22)
(0.0358069 0.00192418 1.90704e-21)
(0.0348517 0.00190603 -1.90449e-21)
(0.0336069 0.00203107 -4.98984e-21)
(0.0362967 -0.00501314 8.50881e-22)
(0.0364664 -0.00507318 2.39838e-21)
(0.0366374 -0.00512928 -3.19803e-21)
(0.03681 -0.00518084 0)
(0.0369853 -0.0052271 3.47542e-21)
(0.0371671 -0.00526733 -1.35854e-22)
(0.0373508 -0.00530224 -2.60543e-21)
(0.0375396 -0.00533157 0)
(0.0377301 -0.00535579 1.4609e-23)
(0.0379198 -0.00537456 -5.3061e-22)
(0.0381101 -0.00538704 4.95377e-22)
(0.0383022 -0.0053931 1.96574e-23)
(0.038495 -0.00539351 0)
(0.0386882 -0.00538722 0)
(0.0388807 -0.00537383 6.28718e-22)
(0.03907 -0.00535513 -1.6123e-21)
(0.0392604 -0.00532833 -2.62634e-22)
(0.0394489 -0.00529655 6.83545e-22)
(0.0396373 -0.00525676 -4.54797e-22)
(0.0398231 -0.00521185 1.92349e-22)
(0.0400086 -0.00515925 -9.76954e-23)
(0.0401909 -0.00510067 2.5815e-22)
(0.0403692 -0.00503448 -1.32554e-22)
(0.0405447 -0.00496063 1.35941e-22)
(0.0407177 -0.00488008 -7.16389e-23)
(0.0408883 -0.00479336 3.85915e-23)
(0.0410563 -0.00469908 -4.84468e-23)
(0.0412188 -0.00459779 0)
(0.041379 -0.0044895 0)
(0.0415363 -0.00437447 -1.49851e-22)
(0.0416868 -0.00425509 0)
(0.0418321 -0.00412882 -2.04121e-22)
(0.0419709 -0.00399477 2.13346e-22)
(0.0421028 -0.00385316 -3.42701e-22)
(0.0422297 -0.00370411 2.80096e-23)
(0.0423502 -0.00354908 -1.23184e-22)
(0.0424651 -0.0033867 0)
(0.04257 -0.00322508 -3.12682e-22)
(0.042664 -0.00305879 2.44496e-22)
(0.0427476 -0.00288632 -1.98133e-22)
(0.0428215 -0.00270709 1.24016e-22)
(0.042886 -0.00252375 1.8935e-24)
(0.0429372 -0.00234119 4.53973e-23)
(0.042973 -0.00215183 -4.21978e-23)
(0.0429955 -0.00195826 3.55428e-22)
(0.0430041 -0.00176073 -1.81106e-22)
(0.0429961 -0.00156362 -1.97173e-22)
(0.0429684 -0.0013615 2.9937e-22)
(0.0429229 -0.00115427 9.55423e-22)
(0.0428596 -0.000945146 -3.09525e-23)
(0.0427754 -0.000735996 8.68156e-22)
(0.0426674 -0.000527031 -2.75309e-22)
(0.0425327 -0.000318905 -7.20454e-22)
(0.0423673 -0.000109693 5.17771e-22)
(0.0421679 0.000102582 0)
(0.0419336 0.000322513 1.17866e-21)
(0.0416647 0.000541572 -6.59186e-23)
(0.0413541 0.000765132 -3.07627e-22)
(0.0410016 0.000989254 -2.71494e-22)
(0.0406039 0.00120862 0)
(0.0401491 0.00142036 -5.60357e-23)
(0.0396278 0.00162828 -2.90472e-22)
(0.039037 0.00183842 0)
(0.0383748 0.00204294 7.35938e-22)
(0.037626 0.00223838 -1.48378e-22)
(0.0367842 0.00243075 1.13035e-21)
(0.0358855 0.00259557 -6.44529e-22)
(0.0349081 0.00270119 1.97144e-21)
(0.0336642 0.00300813 2.3826e-21)
(0.0361907 -0.00533194 -4.30794e-21)
(0.0363734 -0.0053932 2.60111e-21)
(0.0365572 -0.00545074 -7.95755e-22)
(0.0367432 -0.00550355 2.96193e-21)
(0.0369306 -0.0055507 -3.65577e-21)
(0.0371208 -0.00559217 -2.63581e-21)
(0.0373136 -0.00562734 3.25165e-21)
(0.0375094 -0.00565647 0)
(0.0377085 -0.00567934 1.83824e-23)
(0.0379095 -0.005696 0)
(0.0381114 -0.00570629 -4.67891e-22)
(0.038314 -0.00571016 4.52135e-22)
(0.0385174 -0.00570743 1.92747e-21)
(0.0387211 -0.00569806 -1.53306e-21)
(0.0389252 -0.00568176 3.41021e-22)
(0.0391285 -0.00565835 8.4951e-22)
(0.039331 -0.00562815 -2.74528e-22)
(0.0395321 -0.00559085 -2.33444e-22)
(0.0397318 -0.00554668 -4.9017e-22)
(0.0399297 -0.00549518 3.27264e-22)
(0.0401254 -0.00543667 9.03544e-23)
(0.0403184 -0.00537096 -1.19541e-22)
(0.0405086 -0.00529783 9.91296e-23)
(0.0406959 -0.00521691 -1.37019e-23)
(0.0408802 -0.00512847 0)
(0.0410608 -0.00503281 8.03884e-23)
(0.0412373 -0.00493012 9.18361e-23)
(0.0414095 -0.00481983 -6.05975e-23)
(0.0415775 -0.00470213 0)
(0.041741 -0.00457753 3.58623e-22)
(0.0418995 -0.00444559 -2.36025e-22)
(0.0420521 -0.00430661 -5.72946e-23)
(0.0421977 -0.00416061 0)
(0.0423365 -0.00400672 1.29928e-22)
(0.0424683 -0.00384582 -4.68156e-22)
(0.0425927 -0.00367764 3.28143e-22)
(0.042709 -0.00350234 0)
(0.0428155 -0.003325 2.78295e-22)
(0.0429117 -0.00314305 -2.94361e-22)
(0.0429973 -0.00295585 -4.55274e-23)
(0.0430718 -0.00276321 0)
(0.0431349 -0.0025662 -1.02125e-22)
(0.0431852 -0.00236575 -5.16703e-23)
(0.0432215 -0.00216008 4.30656e-23)
(0.0432433 -0.00194987 -2.92126e-22)
(0.04325 -0.00173579 -2.21426e-22)
(0.0432399 -0.00151884 3.73477e-22)
(0.0432116 -0.00129734 -3.96923e-22)
(0.0431647 -0.00107147 4.22615e-22)
(0.0430982 -0.00084295 -3.86036e-22)
(0.0430101 -0.000612617 -3.38942e-22)
(0.0428976 -0.000380383 7.83711e-22)
(0.0427582 -0.000146195 0)
(0.0425885 9.08797e-05 7.16164e-22)
(0.0423855 0.000332514 9.9754e-23)
(0.0421474 0.000579513 -5.27949e-22)
(0.0418721 0.000830076 -4.56458e-22)
(0.0415553 0.00108493 8.46713e-22)
(0.0411942 0.00134244 -1.11521e-22)
(0.0407844 0.0015998 3.57154e-22)
(0.0403189 0.00185498 -5.49107e-22)
(0.0397885 0.00211155 -3.23989e-22)
(0.0391874 0.00237105 -1.07941e-22)
(0.0385102 0.00263023 6.45929e-23)
(0.0377489 0.00288714 3.62925e-22)
(0.0369061 0.00313602 8.63635e-22)
(0.0360039 0.00336735 0)
(0.0350008 0.00356433 7.89164e-22)
(0.0337192 0.00395643 -7.93891e-22)
(0.0360803 -0.00566801 0)
(0.0362746 -0.00573036 8.63833e-22)
(0.0364711 -0.00578886 4.00315e-21)
(0.0366704 -0.00584244 -3.16187e-21)
(0.0368714 -0.00589014 -2.09321e-21)
(0.0370741 -0.00593175 3.48268e-21)
(0.0372787 -0.00596689 -6.46647e-22)
(0.0374852 -0.00599542 5.85684e-22)
(0.0376938 -0.00601719 5.62827e-22)
(0.0379046 -0.00603216 1.96315e-21)
(0.038117 -0.00604023 -1.92974e-21)
(0.0383307 -0.00604134 -1.62928e-21)
(0.0385451 -0.00603538 4.9098e-22)
(0.0387599 -0.00602227 1.38052e-21)
(0.0389748 -0.00600187 -9.36655e-22)
(0.0391896 -0.00597407 2.47046e-22)
(0.0394035 -0.00593895 -2.06605e-22)
(0.0396163 -0.00589634 -1.66623e-22)
(0.0398274 -0.00584633 4.24045e-22)
(0.0400365 -0.00578874 -1.6896e-22)
(0.0402432 -0.00572355 -9.2595e-23)
(0.0404472 -0.0056506 0)
(0.0406483 -0.00556982 8.48702e-23)
(0.0408462 -0.00548115 -2.43797e-23)
(0.0410405 -0.00538466 -1.79237e-22)
(0.0412308 -0.00528045 -2.84545e-22)
(0.0414167 -0.00516849 5.32599e-22)
(0.041598 -0.0050487 -3.51128e-22)
(0.0417742 -0.00492119 0)
(0.0419451 -0.00478605 -4.80458e-22)
(0.0421102 -0.00464341 -4.34523e-23)
(0.0422688 -0.00449346 5.56822e-22)
(0.0424205 -0.00433603 -3.43409e-22)
(0.0425647 -0.00417097 9.13656e-22)
(0.0427012 -0.00399856 -1.63109e-22)
(0.0428296 -0.00381844 0)
(0.0429494 -0.00363065 0)
(0.0430591 -0.00343988 1.22475e-22)
(0.0431585 -0.00324406 1.07544e-22)
(0.0432469 -0.00304268 6.3857e-23)
(0.0433238 -0.00283573 -2.02449e-24)
(0.0433886 -0.00262356 5.65245e-23)
(0.0434404 -0.00240661 0)
(0.0434782 -0.00218466 -1.78942e-23)
(0.0435012 -0.00195776 0)
(0.0435085 -0.0017262 2.08987e-22)
(0.0434991 -0.00149034 -3.46628e-25)
(0.0434716 -0.00124986 -7.59051e-22)
(0.0434249 -0.0010047 0)
(0.0433577 -0.000755424 -4.58642e-22)
(0.0432681 -0.000502504 4.56887e-22)
(0.0431538 -0.000245962 -8.06504e-22)
(0.0430121 1.44233e-05 0)
(0.04284 0.000279359 -2.40673e-21)
(0.0426347 0.000549846 9.60498e-23)
(0.0423937 0.000826554 7.51016e-22)
(0.0421144 0.00110913 6.86826e-22)
(0.0417933 0.00139749 0)
(0.0414267 0.00169088 0)
(0.0410102 0.00198796 -3.65263e-22)
(0.0405375 0.00228834 5.61188e-22)
(0.0400008 0.00259346 3.75485e-22)
(0.0393931 0.00290415 0)
(0.0387083 0.00321927 -3.56205e-22)
(0.0379446 0.00353577 0)
(0.0371082 0.00384519 -8.019e-22)
(0.0362056 0.0041484 2.45818e-22)
(0.035166 0.00443902 5.5614e-22)
(0.0338179 0.00493136 4.37259e-22)
(0.0359664 -0.00602545 0)
(0.0361713 -0.00608939 0)
(0.0363794 -0.00614904 8.2473e-22)
(0.0365912 -0.00620337 -3.0423e-21)
(0.0368054 -0.00625145 3.74845e-21)
(0.0370217 -0.00629301 -6.94043e-22)
(0.0372397 -0.00632779 0)
(0.037459 -0.00635553 -6.02183e-22)
(0.0376797 -0.00637608 0)
(0.0379019 -0.00638934 -9.58439e-22)
(0.0381256 -0.0063952 1.12739e-22)
(0.0383504 -0.00639356 8.64261e-22)
(0.0385761 -0.00638433 0)
(0.0388021 -0.00636743 -6.02393e-22)
(0.0390282 -0.00634277 1.67213e-21)
(0.039254 -0.00631028 -9.81239e-22)
(0.0394791 -0.00626991 9.86319e-22)
(0.0397031 -0.00622161 -1.73617e-22)
(0.0399255 -0.00616533 8.74807e-23)
(0.0401458 -0.00610102 -9.04038e-23)
(0.0403637 -0.00602862 -1.35538e-23)
(0.0405788 -0.00594804 -1.89042e-23)
(0.0407907 -0.00585927 -1.02974e-22)
(0.0409989 -0.00576228 0)
(0.0412033 -0.00565706 2.90547e-22)
(0.0414033 -0.00554366 2.10679e-22)
(0.0415987 -0.00542209 -5.37899e-22)
(0.041789 -0.00529237 2.08002e-22)
(0.0419737 -0.00515456 -5.77039e-22)
(0.0421525 -0.0050087 8.54894e-22)
(0.042325 -0.0048549 -3.74458e-22)
(0.0424906 -0.0046932 2.04184e-22)
(0.0426489 -0.00452358 0)
(0.0427994 -0.00434607 -2.01118e-22)
(0.0429416 -0.00416081 -2.1585e-22)
(0.043075 -0.00396723 0)
(0.0431995 -0.00376564 2.82054e-22)
(0.0433134 -0.00356073 -3.99067e-22)
(0.0434167 -0.00335028 2.69959e-22)
(0.0435087 -0.00313391 -1.40412e-22)
(0.0435888 -0.00291165 -2.68239e-24)
(0.0436564 -0.00268366 -1.13042e-22)
(0.0437106 -0.00245018 3.57696e-23)
(0.0437507 -0.00221123 1.35623e-22)
(0.0437756 -0.00196681 1.95758e-23)
(0.0437846 -0.00171702 8.68768e-22)
(0.0437764 -0.00146202 0)
(0.04375 -0.00120173 5.31919e-22)
(0.0437038 -0.000936044 -4.50154e-23)
(0.0436365 -0.000665096 -5.56431e-22)
(0.0435463 -0.000389023 0)
(0.0434308 -0.000107724 -5.2053e-22)
(0.0432877 0.000179158 5.20098e-22)
(0.0431142 0.00047226 9.08379e-22)
(0.0429075 0.00077237 0)
(0.042665 0.00108008 -1.68274e-21)
(0.0423839 0.00139558 1.68223e-21)
(0.0420607 0.00171889 -1.56129e-21)
(0.0416919 0.00204984 -6.24287e-23)
(0.0412726 0.00238814 0)
(0.0407968 0.0027341 -5.20669e-22)
(0.0402569 0.00308884 3.69921e-22)
(0.039646 0.0034529 5.63023e-22)
(0.0389604 0.0038249 3.62742e-22)
(0.0382032 0.00420128 -7.23728e-22)
(0.037377 0.0045751 1.18352e-22)
(0.0364664 0.0049555 3.15871e-24)
(0.0353717 0.0053431 1.64179e-22)
(0.0339518 0.00593232 -1.29426e-21)
(0.0358478 -0.00640567 -3.66419e-21)
(0.0360642 -0.00647145 1.82205e-22)
(0.0362839 -0.00653245 3.45312e-21)
(0.0365078 -0.00658767 0)
(0.0367349 -0.0066361 -7.47417e-22)
(0.0369646 -0.00667752 0)
(0.0371964 -0.00671169 1.22844e-21)
(0.0374297 -0.00673836 -9.31679e-23)
(0.0376642 -0.00675738 -1.64506e-21)
(0.0378998 -0.00676863 4.73415e-22)
(0.0381363 -0.00677201 4.53191e-22)
(0.0383736 -0.00676737 3.73937e-22)
(0.0386115 -0.0067546 0)
(0.0388495 -0.00673361 0)
(0.0390875 -0.00670432 -2.67266e-22)
(0.039325 -0.00666666 -2.22071e-22)
(0.0395617 -0.00662059 2.69365e-22)
(0.0397972 -0.00656604 -2.68653e-22)
(0.040031 -0.00650298 -1.32138e-22)
(0.0402627 -0.00643138 3.25548e-24)
(0.0404918 -0.00635118 2.83174e-23)
(0.040718 -0.00626237 3.15418e-23)
(0.0409407 -0.00616492 -2.23332e-22)
(0.0411596 -0.00605883 -1.76756e-22)
(0.0413742 -0.0059441 -4.14542e-22)
(0.0415842 -0.00582074 4.14934e-22)
(0.0417892 -0.0056888 5.71869e-22)
(0.0419886 -0.00554831 -5.73041e-22)
(0.0421822 -0.00539931 0)
(0.0423694 -0.00524187 0)
(0.0425498 -0.00507604 1.04458e-21)
(0.0427229 -0.00490188 6.99769e-23)
(0.0428882 -0.00471943 -4.715e-22)
(0.0430453 -0.00452877 -5.36414e-22)
(0.0431935 -0.00433002 5.4012e-22)
(0.0433326 -0.00412247 0)
(0.0434621 -0.00390694 -2.87808e-22)
(0.0435808 -0.00368763 -4.89599e-22)
(0.0436885 -0.00346229 3.16404e-22)
(0.0437847 -0.00323059 -1.06246e-23)
(0.0438686 -0.00299259 -2.59825e-23)
(0.0439395 -0.00274839 1.1997e-22)
(0.0439969 -0.00249812 8.98485e-23)
(0.0440397 -0.00224182 1.70112e-22)
(0.0440672 -0.00197948 -8.26395e-22)
(0.0440784 -0.00171112 1.93614e-23)
(0.0440721 -0.00143675 0)
(0.0440471 -0.00115627 -7.13232e-22)
(0.0440021 -0.000869533 1.98298e-21)
(0.0439355 -0.000576416 -1.352e-21)
(0.0438455 -0.0002768 -6.34601e-22)
(0.0437302 2.95751e-05 -4.11648e-23)
(0.0435871 0.000343169 -5.46312e-22)
(0.0434137 0.000664618 3.90449e-23)
(0.0432075 0.000994653 1.16784e-21)
(0.0429658 0.00133393 -1.20002e-21)
(0.0426856 0.00168295 -1.01726e-21)
(0.0423638 0.0020421 1.97787e-21)
(0.0419962 0.00241174 -1.31911e-22)
(0.041578 0.00279235 8.19301e-22)
(0.0411027 0.00318485 -8.25146e-22)
(0.0405633 0.00359022 5.98165e-22)
(0.0399552 0.00400845 -1.01665e-21)
(0.0392777 0.0044376 -4.76415e-22)
(0.0385348 0.00487511 7.20634e-22)
(0.0377165 0.00531773 -5.5073e-22)
(0.0367807 0.00578254 -8.70306e-22)
(0.0356119 0.00627143 2.75449e-22)
(0.0341285 0.00694794 0)
(0.0357232 -0.00681022 0)
(0.0359529 -0.00687773 -9.05559e-22)
(0.0361856 -0.00694004 -1.31787e-23)
(0.0364223 -0.0069961 0)
(0.0366624 -0.00704483 0)
(0.0369055 -0.00708599 -6.76926e-22)
(0.0371511 -0.00711935 1.8363e-21)
(0.0373986 -0.00714467 -2.31494e-21)
(0.0376475 -0.00716181 1.12858e-21)
(0.0378975 -0.00717069 -4.86206e-22)
(0.0381483 -0.00717117 0)
(0.0383996 -0.00716312 -3.83777e-22)
(0.0386511 -0.0071464 2.9539e-22)
(0.0389025 -0.00712091 0)
(0.0391535 -0.00708657 0)
(0.0394037 -0.0070433 -1.39566e-22)
(0.0396528 -0.00699105 9.69817e-23)
(0.0399005 -0.00692978 1.81839e-22)
(0.0401462 -0.00685946 4.24589e-23)
(0.0403896 -0.00678005 9.56544e-24)
(0.0406302 -0.00669155 4.82785e-23)
(0.0408677 -0.00659393 5.32628e-22)
(0.0411014 -0.00648721 4.85547e-23)
(0.0413311 -0.00637138 -2.8474e-22)
(0.0415562 -0.00624648 4.65819e-22)
(0.0417764 -0.00611252 -3.04508e-22)
(0.0419911 -0.00596956 6.38845e-22)
(0.0422 -0.00581765 0)
(0.0424025 -0.00565683 0)
(0.0425983 -0.00548718 0)
(0.0427868 -0.00530876 -2.32591e-22)
(0.0429676 -0.00512164 -5.18084e-22)
(0.0431403 -0.00492586 5.61315e-22)
(0.0433042 -0.00472156 6.31551e-22)
(0.0434589 -0.00450879 -6.35815e-22)
(0.043604 -0.00428675 0)
(0.043739 -0.0040569 3.64796e-22)
(0.0438629 -0.00382273 -1.8758e-22)
(0.0439756 -0.00358199 0)
(0.0440763 -0.00333448 1.89858e-22)
(0.0441644 -0.00308024 -3.54996e-23)
(0.0442393 -0.00281934 2.3924e-23)
(0.0443002 -0.00255182 -9.17857e-23)
(0.0443464 -0.00227771 0)
(0.0443768 -0.00199697 -3.93135e-22)
(0.0443906 -0.00170954 3.89534e-22)
(0.0443867 -0.00141532 0)
(0.0443639 -0.00111414 -4.45617e-23)
(0.0443207 -0.000805793 4.66908e-23)
(0.0442558 -0.000490009 7.13153e-22)
(0.0441673 -0.000166473 0)
(0.0440535 0.000165232 -9.84543e-23)
(0.0439121 0.000505671 -6.7333e-22)
(0.0437409 0.00085555 -2.14369e-21)
(0.0435375 0.00121567 -8.73562e-23)
(0.0432992 0.00158684 1.2236e-21)
(0.043023 0.00196987 0)
(0.0427056 0.00236555 0)
(0.0423425 0.0027748 1.27674e-21)
(0.0419285 0.00319872 0)
(0.0414573 0.00363859 0)
(0.0409237 0.00409505 -1.70176e-22)
(0.0403263 0.0045675 -9.177e-22)
(0.0396657 0.00505418 -1.67364e-21)
(0.0389395 0.00555553 1.60073e-21)
(0.038116 0.00607304 -5.90518e-22)
(0.0371311 0.0066304 2.68316e-22)
(0.0358806 0.00722007 4.74203e-22)
(0.0343772 0.00798299 0)
(0.035591 -0.00724174 0)
(0.0358362 -0.00731073 9.31811e-22)
(0.0360837 -0.00737412 -2.54825e-21)
(0.036335 -0.00743084 8.68487e-22)
(0.0365892 -0.00747968 0)
(0.0368463 -0.00752041 2.00985e-21)
(0.0371059 -0.00755275 -3.13898e-21)
(0.0373677 -0.00757646 1.09207e-22)
(0.0376311 -0.00759142 2.5591e-21)
(0.0378959 -0.00759753 -5.24146e-22)
(0.0381616 -0.0075947 3.75188e-22)
(0.0384277 -0.00758279 3.1768e-22)
(0.0386939 -0.00756166 -8.15631e-22)
(0.0389598 -0.00753121 9.13492e-22)
(0.039225 -0.00749135 -4.0155e-22)
(0.039489 -0.00744199 4.45264e-23)
(0.0397517 -0.0073831 -2.71557e-22)
(0.0400125 -0.00731462 9.65712e-23)
(0.040271 -0.00723653 1.13944e-22)
(0.0405269 -0.00714881 -1.69427e-23)
(0.0407797 -0.00705145 9.98969e-23)
(0.0410289 -0.00694446 -1.11956e-21)
(0.0412742 -0.00682787 -2.99933e-22)
(0.041515 -0.00670169 -9.51707e-23)
(0.041751 -0.00656597 9.80224e-22)
(0.0419816 -0.00642076 -3.41141e-22)
(0.0422064 -0.00626611 8.87899e-22)
(0.0424249 -0.00610209 -1.39753e-21)
(0.0426367 -0.00592877 0)
(0.0428413 -0.00574623 -5.74216e-22)
(0.0430383 -0.00555455 5.76244e-22)
(0.0432271 -0.00535379 4.41244e-23)
(0.0434073 -0.005144 -3.63187e-22)
(0.0435784 -0.00492538 -3.8381e-22)
(0.0437398 -0.00469789 1.17823e-21)
(0.0438913 -0.00446068 -7.79608e-22)
(0.0440321 -0.00421597 6.39671e-22)
(0.0441616 -0.00396636 -8.42166e-22)
(0.0442794 -0.00370972 4.22178e-22)
(0.044385 -0.0034459 -1.02652e-22)
(0.0444777 -0.00317494 0)
(0.0445568 -0.00289687 1.11877e-22)
(0.0446217 -0.0026117 -1.1063e-22)
(0.0446715 -0.00231938 -2.25448e-22)
(0.0447053 -0.00201984 6.74286e-22)
(0.0447223 -0.00171295 -4.72641e-22)
(0.0447214 -0.00139853 -4.46508e-22)
(0.0447014 -0.00107634 0)
(0.0446611 -0.000746072 -1.82323e-21)
(0.044599 -0.000407359 1.7524e-21)
(0.0445135 -5.97356e-05 -8.09544e-22)
(0.0444031 0.000297361 8.14212e-22)
(0.0442656 0.000664625 9.1148e-22)
(0.044099 0.00104289 1.60282e-21)
(0.0439009 0.0014331 1.503e-21)
(0.0436688 0.0018363 0)
(0.0433994 0.00225362 -1.64289e-21)
(0.0430892 0.00268632 0)
(0.0427333 0.00313582 8.33549e-23)
(0.0423267 0.00360366 -1.22181e-21)
(0.0418644 0.00409107 1.32602e-21)
(0.0413441 0.00459824 1.09555e-21)
(0.0407663 0.0051245 -1.29421e-21)
(0.0401276 0.00566999 -9.4646e-23)
(0.0394102 0.0062396 1.87141e-22)
(0.0385583 0.00683906 2.65169e-21)
(0.037505 0.00749403 1.03557e-21)
(0.0361959 0.00818126 7.39381e-22)
(0.0347476 0.00903235 -7.2395e-22)
(0.035451 -0.00770314 0)
(0.0357128 -0.00777337 0)
(0.035977 -0.00783759 -1.68732e-21)
(0.0362445 -0.00789469 2.49113e-21)
(0.0365147 -0.00794339 7.2971e-22)
(0.0367873 -0.0079834 0)
(0.0370622 -0.00801444 0)
(0.037339 -0.00803624 -5.33396e-22)
(0.0376174 -0.00804866 9.17829e-22)
(0.0378972 -0.00805164 -1.56108e-22)
(0.038178 -0.00804505 -1.84733e-21)
(0.0384593 -0.00802878 3.42925e-22)
(0.0387407 -0.00800271 -2.12268e-22)
(0.0390217 -0.00796673 4.30703e-22)
(0.0393019 -0.00792076 -1.00356e-22)
(0.0395807 -0.00786472 0)
(0.0398578 -0.00779856 0)
(0.0401328 -0.00772225 5.21559e-23)
(0.0404051 -0.00763576 -2.70642e-22)
(0.0406744 -0.00753908 1.20967e-22)
(0.0409402 -0.00743222 -2.42037e-22)
(0.0412021 -0.00731519 2.25268e-22)
(0.0414596 -0.00718805 3.23989e-22)
(0.0417122 -0.00705082 -2.70788e-22)
(0.0419595 -0.00690357 -3.75885e-22)
(0.042201 -0.00674637 0)
(0.0424363 -0.0065793 0)
(0.0426649 -0.00640243 8.22053e-22)
(0.0428863 -0.00621587 0)
(0.0431001 -0.0060197 6.75766e-22)
(0.0433058 -0.00581402 -6.78013e-22)
(0.0435029 -0.0055989 -3.49371e-22)
(0.0436909 -0.00537443 3.70745e-22)
(0.0438693 -0.00514083 8.34261e-22)
(0.0440377 -0.00489797 -4.12254e-22)
(0.0441957 -0.004645 -4.65873e-22)
(0.0443426 -0.00438497 4.91373e-22)
(0.0444779 -0.0041194 0)
(0.0446012 -0.00384635 0)
(0.0447119 -0.00356574 1.31027e-22)
(0.0448093 -0.00327759 0)
(0.044893 -0.00298191 0)
(0.0449621 -0.00267865 -3.90337e-22)
(0.045016 -0.00236775 5.23166e-22)
(0.0450537 -0.00204906 -2.70418e-22)
(0.0450746 -0.00172242 4.84974e-22)
(0.0450774 -0.00138757 0)
(0.0450613 -0.0010442 1.55744e-21)
(0.045025 -0.000691895 -5.41635e-23)
(0.0449673 -0.000330188 0)
(0.0448867 4.15104e-05 -1.99667e-21)
(0.0447817 0.000423909 -6.70996e-23)
(0.0446503 0.000817853 -1.89e-21)
(0.0444907 0.00122434 -1.0181e-21)
(0.0443005 0.00164453 -1.85409e-21)
(0.044077 0.00207975 1.8547e-21)
(0.0438168 0.0025315 1.66901e-21)
(0.0435161 0.00300147 0)
(0.0431704 0.00349146 -1.65893e-21)
(0.0427756 0.00400309 1.60724e-22)
(0.0423291 0.00453732 0)
(0.0418307 0.00509423 0)
(0.0412784 0.00567446 1.30878e-21)
(0.0406564 0.00628193 0)
(0.0399268 0.00692572 0)
(0.0390207 0.00761268 -1.32011e-21)
(0.0379037 0.00836519 -8.90469e-22)
(0.0365935 0.00914091 -1.36429e-21)
(0.035264 0.0100252 0)
(0.0353039 -0.00819717 0)
(0.0355831 -0.00826846 0)
(0.0358649 -0.0083333 0)
(0.0361502 -0.00839051 7.94402e-22)
(0.036438 -0.00843875 6.59999e-22)
(0.036728 -0.00847771 -1.286e-22)
(0.0370199 -0.00850709 -1.26073e-21)
(0.0373133 -0.0085266 5.47395e-22)
(0.037608 -0.00853609 -4.41635e-22)
(0.0379039 -0.00853547 -7.90214e-22)
(0.0382005 -0.00852465 0)
(0.0384975 -0.00850349 0)
(0.0387946 -0.0084719 -5.94734e-23)
(0.0390911 -0.00842976 -4.47253e-22)
(0.0393867 -0.008377 2.36348e-22)
(0.0396808 -0.00831356 -1.2273e-22)
(0.0399729 -0.00823941 3.39389e-23)
(0.0402627 -0.00815451 7.60472e-23)
(0.0405495 -0.00805885 -6.99575e-23)
(0.040833 -0.00795244 0)
(0.0411126 -0.00783529 5.70815e-22)
(0.0413878 -0.00770745 0)
(0.0416581 -0.00756897 7.968e-22)
(0.0419232 -0.0074199 -1.36892e-21)
(0.0421825 -0.00726034 1.50811e-21)
(0.0424355 -0.00709036 6.06089e-22)
(0.0426818 -0.00691008 -9.67133e-22)
(0.0429209 -0.00671959 1.01678e-21)
(0.0431523 -0.00651901 -6.89385e-22)
(0.0433756 -0.00630845 0)
(0.0435903 -0.00608804 -8.35727e-22)
(0.0437959 -0.00585784 -5.02644e-22)
(0.043992 -0.005618 8.87071e-22)
(0.0441781 -0.00536874 -9.58146e-22)
(0.0443536 -0.00510977 5.09988e-22)
(0.0445184 -0.00484049 -5.13286e-22)
(0.0446716 -0.00456469 -2.54426e-22)
(0.0448129 -0.00428255 2.88612e-22)
(0.0449418 -0.00399254 1.34282e-22)
(0.0450579 -0.00369464 -4.10439e-22)
(0.0451605 -0.00338884 -3.74012e-23)
(0.045249 -0.00307513 0)
(0.0453229 -0.00275344 1.36667e-22)
(0.0453814 -0.00242365 -2.74549e-22)
(0.0454238 -0.0020856 2.75238e-22)
(0.0454493 -0.00173905 0)
(0.045457 -0.0013837 0)
(0.045446 -0.00101913 6.08826e-22)
(0.0454153 -0.000644865 -1.14989e-21)
(0.0453636 -0.000260296 -2.35273e-21)
(0.0452896 0.000135286 4.54649e-21)
(0.0451919 0.000542733 -1.18449e-21)
(0.0450688 0.000963062 1.11674e-21)
(0.0449182 0.00139747 1.03441e-21)
(0.0447378 0.00184738 -2.14214e-21)
(0.0445248 0.00231445 2.14152e-21)
(0.0442758 0.00280051 0)
(0.0439872 0.00330754 -2.18258e-21)
(0.0436557 0.00383744 1.77865e-22)
(0.0432792 0.00439173 1.96486e-21)
(0.0428568 0.00497126 0)
(0.0423866 0.00557724 0)
(0.0418563 0.00621344 0)
(0.0412317 0.00688829 3.57784e-21)
(0.0404614 0.00761227 1.78707e-21)
(0.0394918 0.00838895 1.40088e-21)
(0.0383586 0.00923462 -3.01224e-21)
(0.0371301 0.0100729 -4.01183e-22)
(0.0360794 0.0110449 1.74928e-21)
(0.035151 -0.00872659 0)
(0.0354483 -0.00879882 1.84382e-21)
(0.0357484 -0.00886407 -2.25981e-21)
(0.0360523 -0.00892115 1.11474e-21)
(0.0363589 -0.00896864 -2.23421e-21)
(0.0366677 -0.0090062 -6.33202e-22)
(0.0369782 -0.00903353 -5.57037e-22)
(0.0372901 -0.00905032 0)
(0.0376029 -0.00905641 8.6062e-22)
(0.0379164 -0.00905172 7.00333e-22)
(0.0382303 -0.00903613 -6.47631e-22)
(0.0385443 -0.00900952 1.90254e-22)
(0.038858 -0.00897179 -5.54456e-23)
(0.0391709 -0.00892283 2.45942e-22)
(0.0394826 -0.00886259 -4.37831e-24)
(0.0397925 -0.008791 -1.32356e-22)
(0.0401003 -0.00870807 -1.31049e-22)
(0.0404053 -0.00861376 2.9789e-22)
(0.0407072 -0.00850808 2.08716e-22)
(0.0410053 -0.00839107 6.78829e-22)
(0.0412991 -0.00826275 -5.93634e-22)
(0.0415882 -0.0081232 0)
(0.041872 -0.00797247 8.93924e-23)
(0.04215 -0.00781066 0)
(0.0424217 -0.00763788 -5.63138e-22)
(0.0426867 -0.00745424 -6.19e-22)
(0.0429444 -0.00725986 3.3697e-22)
(0.0431944 -0.00705487 0)
(0.0434363 -0.00683941 4.43877e-22)
(0.0436694 -0.00661362 9.10227e-22)
(0.0438934 -0.00637764 -9.12808e-22)
(0.0441079 -0.00613158 4.67455e-22)
(0.0443123 -0.0058756 -1.06296e-21)
(0.0445062 -0.00560995 2.14092e-21)
(0.0446891 -0.00533412 -5.59214e-22)
(0.044861 -0.00504792 0)
(0.0450207 -0.00475585 -3.20194e-22)
(0.0451683 -0.00445655 3.21519e-23)
(0.0453033 -0.00414907 4.65063e-22)
(0.0454251 -0.00383341 -3.92579e-22)
(0.0455332 -0.00350957 7.49612e-23)
(0.0456272 -0.0031775 -2.47187e-22)
(0.0457064 -0.00283712 1.6069e-22)
(0.0457702 -0.00248828 0)
(0.0458181 -0.00213076 0)
(0.0458493 -0.00176427 0)
(0.045863 -0.00138844 6.88734e-22)
(0.0458584 -0.00100278 6.87836e-22)
(0.0458345 -0.000606715 0)
(0.0457902 -0.000199529 1.30189e-21)
(0.0457243 0.00021962 1.42567e-21)
(0.0456355 0.000651731 1.34962e-21)
(0.045522 0.00109802 0)
(0.0453819 0.00155991 0)
(0.0452127 0.0020391 -2.45299e-21)
(0.0450118 0.00253751 2.45077e-21)
(0.0447764 0.00305718 0)
(0.0445039 0.00360018 2.20786e-21)
(0.0441928 0.00416832 -2.15955e-21)
(0.0438422 0.00476319 -2.42246e-21)
(0.0434498 0.00538663 2.17948e-21)
(0.0430046 0.00604271 -2.18851e-21)
(0.042478 0.00673949 0)
(0.0418223 0.00748809 -1.90342e-21)
(0.0409973 0.00829594 1.49622e-22)
(0.0400013 0.00916029 -4.19856e-21)
(0.0389537 0.0100856 -4.0783e-21)
(0.037933 0.0109782 3.69e-21)
(0.0373351 0.0120579 -1.73052e-21)
(0.0349931 -0.00929446 5.1094e-22)
(0.0353093 -0.00936748 0)
(0.0356286 -0.00943294 4.44684e-22)
(0.035952 -0.00948966 -1.91729e-21)
(0.0362782 -0.0095361 3.23133e-21)
(0.0366068 -0.00957191 -6.87988e-22)
(0.0369373 -0.00959678 5.71373e-22)
(0.0372689 -0.00961039 -8.69275e-22)
(0.0376014 -0.00961259 4.44913e-22)
(0.0379343 -0.00960328 3.42674e-22)
(0.0382672 -0.00958234 2.0994e-22)
(0.0385999 -0.00954967 -4.53057e-22)
(0.0389318 -0.00950514 1.99804e-22)
(0.0392626 -0.00944867 5.37344e-23)
(0.0395916 -0.0093802 1.6386e-22)
(0.0399185 -0.00929969 1.42677e-22)
(0.0402428 -0.00920714 -3.19794e-22)
(0.040564 -0.00910256 0)
(0.0408815 -0.00898596 0)
(0.0411949 -0.00885741 -4.47343e-22)
(0.0415035 -0.00871695 -4.23052e-22)
(0.041807 -0.00856469 -1.12913e-21)
(0.0421046 -0.00840072 5.77418e-22)
(0.042396 -0.00822516 1.38184e-21)
(0.0426807 -0.00803814 -1.38063e-21)
(0.042958 -0.0078398 4.19958e-22)
(0.0432275 -0.00763032 4.50896e-22)
(0.0434888 -0.00740984 0)
(0.0437413 -0.00717853 -4.52764e-22)
(0.0439846 -0.00693656 -1.0452e-21)
(0.0442182 -0.00668411 -5.28444e-23)
(0.0444417 -0.00642129 1.10431e-21)
(0.0446547 -0.00614835 -6.26457e-22)
(0.0448567 -0.00586548 0)
(0.0450473 -0.00557201 3.40691e-22)
(0.0452265 -0.00526854 -3.53426e-22)
(0.045393 -0.00495947 3.24723e-22)
(0.0455473 -0.00464243 -6.94644e-22)
(0.0456886 -0.004317 0)
(0.0458165 -0.00398317 -9.33618e-23)
(0.0459307 -0.00364094 8.98034e-23)
(0.0460306 -0.00329024 -1.43492e-22)
(0.0461158 -0.00293097 5.46236e-22)
(0.0461857 -0.00256294 -1.0971e-21)
(0.0462398 -0.00218589 7.27812e-22)
(0.0462774 -0.00179948 7.36689e-22)
(0.0462979 -0.00140326 -6.57997e-22)
(0.0463005 -0.000996672 1.54237e-21)
(0.0462843 -0.000579056 -1.45915e-21)
(0.0462484 -0.000149594 -3.61038e-21)
(0.0461915 0.000292682 7.13336e-23)
(0.0461125 0.000748942 -1.36778e-21)
(0.0460095 0.0012206 0)
(0.0458808 0.0017093 0)
(0.0457242 0.00221696 -2.78718e-21)
(0.0455376 0.00274556 4.06676e-21)
(0.0453196 0.0032972 -2.74901e-21)
(0.045069 0.00387388 0)
(0.0447852 0.00447764 2.82142e-21)
(0.0444652 0.00511108 5.01769e-21)
(0.0440988 0.00577868 -2.37716e-21)
(0.0436604 0.0064886 5.28097e-23)
(0.0431093 0.00725209 2.49984e-21)
(0.0424076 0.00807839 -2.11128e-22)
(0.0415617 0.00896842 -4.78241e-21)
(0.0406462 0.00990832 4.52658e-21)
(0.0398335 0.0109012 2.12103e-21)
(0.0391782 0.0118702 0)
(0.0391434 0.0131492 0)
(0.0348301 -0.00990421 -5.24801e-22)
(0.0351667 -0.00997783 -2.30398e-21)
(0.0355064 -0.0100433 1.81564e-21)
(0.0358503 -0.0100994 0)
(0.0361973 -0.0101444 3.55254e-22)
(0.0365467 -0.0101781 1.126e-21)
(0.0368981 -0.0102001 -8.71258e-22)
(0.0372506 -0.01021 9.86097e-22)
(0.037604 -0.0102078 -7.78256e-22)
(0.0379576 -0.0101932 0)
(0.0383111 -0.0101663 -1.40375e-22)
(0.0386641 -0.0101269 0)
(0.0390159 -0.0100748 8.92643e-23)
(0.039366 -0.0100101 -4.94789e-23)
(0.0397141 -0.00993257 0)
(0.0400595 -0.00984229 0)
(0.0404017 -0.00973924 0)
(0.0407403 -0.00962345 -5.87705e-22)
(0.0410747 -0.00949497 7.88033e-22)
(0.0414044 -0.00935387 4.56912e-22)
(0.0417288 -0.00920026 0)
(0.0420474 -0.00903423 0)
(0.0423596 -0.00885594 0)
(0.042665 -0.00866553 -2.04892e-21)
(0.0429631 -0.00846317 2.50747e-21)
(0.0432532 -0.00824906 -1.30817e-21)