/*--------------------------------*- C++ -*----------------------------------*\
| =========                 |                                                 |
| \\      /  F ield         | OpenFOAM: The Open Source CFD Toolbox           |
|  \\    /   O peration     | Version:  2312                                  |
|   \\  /    A nd           | Website:  www.openfoam.com                      |
|    \\/     M anipulation  |                                                 |
\*---------------------------------------------------------------------------*/
FoamFile
{
    version     2.0;
    format      ascii;
    arch        "LSB;label=32;scalar=64";
    class       volScalarField;
    location    "700";
    object      epsilon;
}
// * * * * * * * * * * * * * * * * * * * * * * * * * * * * * * * * * * * * * //

dimensions      [0 2 -3 0 0 0 0];

internalField   nonuniform List<scalar> 
76025
(
0.000255037
0.000254027
0.000253383
0.000252788
0.000252274
0.000251929
0.000252067
0.000251708
0.000251057
0.000250137
0.000249158
0.00024831
0.000247498
0.000246652
0.000247042
0.000246887
0.000246069
0.000245096
0.000244284
0.000244317
0.000243867
0.000242964
0.000241695
0.000240657
0.000240647
0.000240326
0.000240414
0.000240169
0.000240228
0.000240244
0.000239629
0.000239744
0.000239855
0.000239951
0.000240179
0.000240035
0.00024021
0.000240581
0.000241227
0.000241932
0.000242942
0.000244166
0.000246175
0.000248247
0.00025075
0.000253577
0.000256674
0.000260049
0.000263716
0.000267233
0.000271365
0.000274799
0.000279924
0.000282781
0.000288669
0.000291502
0.000297722
0.00030134
0.000309474
0.000314514
0.000325304
0.000331414
0.000344441
0.000351946
0.000365215
0.000377272
0.000391686
0.000415783
0.000429959
0.000257446
0.000256726
0.00025604
0.000255206
0.000254385
0.000253861
0.000253559
0.000253292
0.000252819
0.000252394
0.000251742
0.000251176
0.0002505
0.000249888
0.000249215
0.000248715
0.000248219
0.000247792
0.000247883
0.000247855
0.000247884
0.000247845
0.000247506
0.000246639
0.000246306
0.000246102
0.000246448
0.000246573
0.000246387
0.000246423
0.000246876
0.000247421
0.000247767
0.000248977
0.000249554
0.000249498
0.000250197
0.000251406
0.000252422
0.000253362
0.000254409
0.000255891
0.000257814
0.000259978
0.000262276
0.000264632
0.000267052
0.000269629
0.000272406
0.000275496
0.000278857
0.000282243
0.000286333
0.000289779
0.000294926
0.000298977
0.000306111
0.000311567
0.00032196
0.000330096
0.000343271
0.00035172
0.00036568
0.000373484
0.000390852
0.000401569
0.000426556
0.000442794
0.00047562
0.000260796
0.000260495
0.000259913
0.000259255
0.000258567
0.000257858
0.000257151
0.000256614
0.000256182
0.00025577
0.000255303
0.000254817
0.000254265
0.000253751
0.000253141
0.000252662
0.000252474
0.00025209
0.000251823
0.000252102
0.000252149
0.000252285
0.000252139
0.000252074
0.000252172
0.000252174
0.000252869
0.00025313
0.000252903
0.000252818
0.000253211
0.000253789
0.000254462
0.000255366
0.000256359
0.000257028
0.000259114
0.000260575
0.000262731
0.000265822
0.000267296
0.00026708
0.000267897
0.000269363
0.000271325
0.000273555
0.000276413
0.000279771
0.000283566
0.000287446
0.000291459
0.000295317
0.000299789
0.000303853
0.000309957
0.000315213
0.000323898
0.000331535
0.000344321
0.000354101
0.000368266
0.000376553
0.000390801
0.000399198
0.000417509
0.000429931
0.000455805
0.000478674
0.000517616
0.00026446
0.000264484
0.000264227
0.000263755
0.000263183
0.000262525
0.00026184
0.000261242
0.000260693
0.000260396
0.000260129
0.00026026
0.000260193
0.000260139
0.00026003
0.000259769
0.0002595
0.000259614
0.000259387
0.00025966
0.000259793
0.000259894
0.000259978
0.000259953
0.000259975
0.000260741
0.000261134
0.000261569
0.000261143
0.000261594
0.000261552
0.000261853
0.000262578
0.000263507
0.000264726
0.000266264
0.000267972
0.000269552
0.000272117
0.000275195
0.000277261
0.000278962
0.000281096
0.000281916
0.00028357
0.00028613
0.000289805
0.000294407
0.000298767
0.000303189
0.000306929
0.000311133
0.000315272
0.000320455
0.00032723
0.000334185
0.000344753
0.000354688
0.000369248
0.000380055
0.000394255
0.000402694
0.000417341
0.000426654
0.000447287
0.000462186
0.000493133
0.000523709
0.00056544
0.000269409
0.000269474
0.000269433
0.000269464
0.000269378
0.000269284
0.000268824
0.000268365
0.000267478
0.000267163
0.000266816
0.000266616
0.000266638
0.000266617
0.000266918
0.000266763
0.000266686
0.000266633
0.000267116
0.000267198
0.000267268
0.000268156
0.000268469
0.000269059
0.000269445
0.000269993
0.000269347
0.000270513
0.000270124
0.000270066
0.00027078
0.000271811
0.00027282
0.000274808
0.000276148
0.000278418
0.000280483
0.000283139
0.000285138
0.000287771
0.00029237
0.000294444
0.000295046
0.000295108
0.000296999
0.000300247
0.000303665
0.000307482
0.000311687
0.000316472
0.000321508
0.000326842
0.000333077
0.000340497
0.000349646
0.000359344
0.000372574
0.00038403
0.000398841
0.000408408
0.000421496
0.000430049
0.000445669
0.000457952
0.000482485
0.000502344
0.00054266
0.000575096
0.000633945
0.000276007
0.000276029
0.000276022
0.00027561
0.000275892
0.000275891
0.00027641
0.000276528
0.000276515
0.000276543
0.000276488
0.00027668
0.000276754
0.000276934
0.000277096
0.000277168
0.000276744
0.000276428
0.000277418
0.000277822
0.000277717
0.000277787
0.000277943
0.000278351
0.000278877
0.000279509
0.000280373
0.000281723
0.000282508
0.000284392
0.00028572
0.0002863
0.000286918
0.000288092
0.000289721
0.000291488
0.000293992
0.000297589
0.000302194
0.000304398
0.000304288
0.000305579
0.000308383
0.000312154
0.000319271
0.000323402
0.000327438
0.0003285
0.000331143
0.000335388
0.000340669
0.000347151
0.000356051
0.000365456
0.000377765
0.000389425
0.000404192
0.000414137
0.000426674
0.000433954
0.000447098
0.000458755
0.000476305
0.000496883
0.000523332
0.000554838
0.000598431
0.000645223
0.000711078
0.000284367
0.00028441
0.000284339
0.000283974
0.000283708
0.000284264
0.000284521
0.000284572
0.000285429
0.000284906
0.000285586
0.000285167
0.000285194
0.000285598
0.000286003
0.000286397
0.000287232
0.000288391
0.000288872
0.000288777
0.00028892
0.000289748
0.00029093
0.000291742
0.00029314
0.000295148
0.000294564
0.000296244
0.000295669
0.000295917
0.000296873
0.000298015
0.000299283
0.000300887
0.000302681
0.000304924
0.000307159
0.00031035
0.000312788
0.000316484
0.000320187
0.000324967
0.000329324
0.000333134
0.000336468
0.000340656
0.000344247
0.00034951
0.000354554
0.000361597
0.000368352
0.000379087
0.000389013
0.000401371
0.000415184
0.000428761
0.000441011
0.000448217
0.000458738
0.000466418
0.00048095
0.000497823
0.000517015
0.000547472
0.000575302
0.00062101
0.000671779
0.000730222
0.000820694
0.000296576
0.000296583
0.000296507
0.000296126
0.000296569
0.000296721
0.000296767
0.000296299
0.000296485
0.000296544
0.000296841
0.00029725
0.000297493
0.000298302
0.000299042
0.000300304
0.000301025
0.000302608
0.000303634
0.000304152
0.000305766
0.000305161
0.000305332
0.000305241
0.000306121
0.000307562
0.000308801
0.0003105
0.000313726
0.000315164
0.000315988
0.000317067
0.000318407
0.000320263
0.000323009
0.000326375
0.000331672
0.000335703
0.000337604
0.000339206
0.000341729
0.000344279
0.00034805
0.000351651
0.000356128
0.00036167
0.00036655
0.000374357
0.000382114
0.000391796
0.000402458
0.000418342
0.000429007
0.000445363
0.000460267
0.000477001
0.000486158
0.000490985
0.000499849
0.000507019
0.000524301
0.000544731
0.000569297
0.000611547
0.000641805
0.000713191
0.000758922
0.000857503
0.00095393
0.000309474
0.000309918
0.000310058
0.000309859
0.000309838
0.00031094
0.000311389
0.000311779
0.000312017
0.000311993
0.000312433
0.00031272
0.000314094
0.000314589
0.000314026
0.000314506
0.000315667
0.000317072
0.000318731
0.000320346
0.00032233
0.000323388
0.000325308
0.000326611
0.000328482
0.000331858
0.000333238
0.000332804
0.00033383
0.000336308
0.00033864
0.000341084
0.000345027
0.000350746
0.000353358
0.000352854
0.000353708
0.000355737
0.000358367
0.000361557
0.000365019
0.000369073
0.000373545
0.000378729
0.000385233
0.000392537
0.000399741
0.000411457
0.000419678
0.000433244
0.000446088
0.000462398
0.000476477
0.000491731
0.000512086
0.000535448
0.000543883
0.00054065
0.000548985
0.000558219
0.000583923
0.00060734
0.000647688
0.000693755
0.000742331
0.000825477
0.000886593
0.00102159
0.00112703
0.000325607
0.000326587
0.000327243
0.000327393
0.00032863
0.000328993
0.000328505
0.000328401
0.000329108
0.000330038
0.000331137
0.000331847
0.000333799
0.000334609
0.000336994
0.00033576
0.000337956
0.000338741
0.000337556
0.000337429
0.000338773
0.000340242
0.000342801
0.000345129
0.000347367
0.000349197
0.000351214
0.000352247
0.000354225
0.000356269
0.000359657
0.000362939
0.00036667
0.000371373
0.000376002
0.000380129
0.000384157
0.000393594
0.000398154
0.000403507
0.000407021
0.000407367
0.000411535
0.000417406
0.000424664
0.000432098
0.000441247
0.000451157
0.000462088
0.000474592
0.000486921
0.00050312
0.000522815
0.000540146
0.000554681
0.000562045
0.000575626
0.000586165
0.000608365
0.000625149
0.000664517
0.000692647
0.00075144
0.000800354
0.000877103
0.000969357
0.00106092
0.00123843
0.00134732
0.000344972
0.000346038
0.000346866
0.000348516
0.000349206
0.000351342
0.000351027
0.00035067
0.000350658
0.000350967
0.000351517
0.000351826
0.000352698
0.000353255
0.000354394
0.000354965
0.000356436
0.000358095
0.000359826
0.000361716
0.000363359
0.000365613
0.000367998
0.000370688
0.000373916
0.000377435
0.000380051
0.00038474
0.000389245
0.000391867
0.000393663
0.00039531
0.000397973
0.000400554
0.000405119
0.000409527
0.000414735
0.000420854
0.000427049
0.000433521
0.000441097
0.000449794
0.000463814
0.000473532
0.000479214
0.000484465
0.000491693
0.000501848
0.000513719
0.000527821
0.000543629
0.00055868
0.000578158
0.000595373
0.000616154
0.00062903
0.000649798
0.000662687
0.000694354
0.000717034
0.000769011
0.000807617
0.000885831
0.000945694
0.0010603
0.0011584
0.00131966
0.00149796
0.00169753
0.00036923
0.000370536
0.0003723
0.000373227
0.000376697
0.000377947
0.000379243
0.00037982
0.000378537
0.00037839
0.000379241
0.000380826
0.000382599
0.000384231
0.000385797
0.000390408
0.000392244
0.000392331
0.000392591
0.000393508
0.000395035
0.000397242
0.000400179
0.000403532
0.000407298
0.00041128
0.000414885
0.000418822
0.000423458
0.000427495
0.00043227
0.000437092
0.000441751
0.000447569
0.000456679
0.000468792
0.000470323
0.000472154
0.000474457
0.000479975
0.000485101
0.000493667
0.000501517
0.000512598
0.000523329
0.000537405
0.000550828
0.000568486
0.000585392
0.0006056
0.000625369
0.000645086
0.00066952
0.000695518
0.000715293
0.000725899
0.000744875
0.0007614
0.000802503
0.000839839
0.000906805
0.000966422
0.0010654
0.00115443
0.00130251
0.00143372
0.00165993
0.00185195
0.00218765
0.000400622
0.000402217
0.000404095
0.000405953
0.000408352
0.000410799
0.00041235
0.000414818
0.000418383
0.000417362
0.000420005
0.000419014
0.000419521
0.000421266
0.000423732
0.000427322
0.000430513
0.000434349
0.00043735
0.000441846
0.000445009
0.000451769
0.000454548
0.000453611
0.000453752
0.000456577
0.0004587
0.000464596
0.000468705
0.000476521
0.000482781
0.000491645
0.000500195
0.000509138
0.000518233
0.000524324
0.000538039
0.000544962
0.000560825
0.000567579
0.00056511
0.000568241
0.000573502
0.000587651
0.000598872
0.000618092
0.000632728
0.000654464
0.000675587
0.000699849
0.000722177
0.000745569
0.000780644
0.000826124
0.000844654
0.000846583
0.000863876
0.000896681
0.0009556
0.00101475
0.0011038
0.00119155
0.00131976
0.0014497
0.00163442
0.00182661
0.00209538
0.00236503
0.00277111
0.000442843
0.000445126
0.000447569
0.000449709
0.000452466
0.0004549
0.000457234
0.000459633
0.000462519
0.000464891
0.000467692
0.000469811
0.00047257
0.000478333
0.000480341
0.000479279
0.000478677
0.00048081
0.000483755
0.000487733
0.000493206
0.000498191
0.000504385
0.000509586
0.000514785
0.000521987
0.000528036
0.000534765
0.000544721
0.000558744
0.000565041
0.000563405
0.000565048
0.000569432
0.000575203
0.000581861
0.000589683
0.000597201
0.000606758
0.000615818
0.000626865
0.000638434
0.000651093
0.000665717
0.000680894
0.000697244
0.000716819
0.000735677
0.000758064
0.000779328
0.000815853
0.00085016
0.000882851
0.00090494
0.000933937
0.000973457
0.00103107
0.0010935
0.00117734
0.00126631
0.00138516
0.00151157
0.00167962
0.00186008
0.0020955
0.00235423
0.00267619
0.00304304
0.00348171
0.000494045
0.000495953
0.000498416
0.000500466
0.000503324
0.000506068
0.000508814
0.000512664
0.000516068
0.000520224
0.000524712
0.000528996
0.000534004
0.00053884
0.000542884
0.000547401
0.000550941
0.000554829
0.000561421
0.00057127
0.00057192
0.000573183
0.000574565
0.000579981
0.000584933
0.000593181
0.000601386
0.000609533
0.000620552
0.000629361
0.000639396
0.000650852
0.000658583
0.000672613
0.000681369
0.000702074
0.000698343
0.00070506
0.000705791
0.000712641
0.000723797
0.000737102
0.00075096
0.000765836
0.000782888
0.000801634
0.000823137
0.00084659
0.000873605
0.000903298
0.000937382
0.000974635
0.00101995
0.00107168
0.00113545
0.00120588
0.00129197
0.00138631
0.00150322
0.00163102
0.00179115
0.0019655
0.00218542
0.00242312
0.00272356
0.00304676
0.00344594
0.00389233
0.00437517
0.000569412
0.000572822
0.000576232
0.000580796
0.000585067
0.000590226
0.00059633
0.000600398
0.000606697
0.000616377
0.000620482
0.000623469
0.00062072
0.000623196
0.000628176
0.000634752
0.000644634
0.000650895
0.00066182
0.000670053
0.000680142
0.000685014
0.00070032
0.000708087
0.000717309
0.000724368
0.000720352
0.000719701
0.00072564
0.000734645
0.000743699
0.000758773
0.000769031
0.000787199
0.000799697
0.000819338
0.000843076
0.000854382
0.000892257
0.000911495
0.000933346
0.000950912
0.00093913
0.000941074
0.000955756
0.000978421
0.00100771
0.00104207
0.00108231
0.00112766
0.0011802
0.00123919
0.00130782
0.00138464
0.00147452
0.00157492
0.00169356
0.00182567
0.0019832
0.00215782
0.00236748
0.00259857
0.00287765
0.00318171
0.00355338
0.00394485
0.00444204
0.00492174
0.00558965
0.00067028
0.00067464
0.00067878
0.000683895
0.000688504
0.00069396
0.000699423
0.00070535
0.000711726
0.00071834
0.000724416
0.000732219
0.000742376
0.000757383
0.00076354
0.000761156
0.000762403
0.000767439
0.000774273
0.000783214
0.000791753
0.000801441
0.000810533
0.000821703
0.000830789
0.000843943
0.000853358
0.000869111
0.000880415
0.000901126
0.00091474
0.000940586
0.000956632
0.000987416
0.00100612
0.00104049
0.00106961
0.00108662
0.00113322
0.00111739
0.00116738
0.00115186
0.00115691
0.00117811
0.00121023
0.00125033
0.0012976
0.00135131
0.00141242
0.00148077
0.00155828
0.00164478
0.0017432
0.00185291
0.00197844
0.00211809
0.00227917
0.00245763
0.0026654
0.00289426
0.00316293
0.00345724
0.00380398
0.00418224
0.00462578
0.00510863
0.00566696
0.00627129
0.00697275
0.000812842
0.000817958
0.00082336
0.000828738
0.000834939
0.000840612
0.000847759
0.000853998
0.000862802
0.000869483
0.000879762
0.000888546
0.000901563
0.000917422
0.000927549
0.000941987
0.000963374
0.000959941
0.000970516
0.000968537
0.00097206
0.000981003
0.000991601
0.00100466
0.00101856
0.00103558
0.00105187
0.00107109
0.00108917
0.0011106
0.00113069
0.00115438
0.0011767
0.00120251
0.00122716
0.00125451
0.00128224
0.00131126
0.00134407
0.00137798
0.0014165
0.00145868
0.00150612
0.00155941
0.00161912
0.00168544
0.00175926
0.00184066
0.00193089
0.0020303
0.0021408
0.00226265
0.00239869
0.00254881
0.00271745
0.00290344
0.00311422
0.00334591
0.00361139
0.00390122
0.00423714
0.00460011
0.00502491
0.00547762
0.00601078
0.00657064
0.00722777
0.00792198
0.00869712
0.00102979
0.00103706
0.00104443
0.00105229
0.00106047
0.00106936
0.00107862
0.00108901
0.0010999
0.00111233
0.00112497
0.00114015
0.00115472
0.00117418
0.00118996
0.00121106
0.00122888
0.00125278
0.00126913
0.00129909
0.0013249
0.00134097
0.00138552
0.00140525
0.00139501
0.00139594
0.00140723
0.00142552
0.00144879
0.00147555
0.00150545
0.00153765
0.00157269
0.00160994
0.00165047
0.00169404
0.00174149
0.00179263
0.00184781
0.00190733
0.00197172
0.00204144
0.0021171
0.00219919
0.00228838
0.00238522
0.00249064
0.00260526
0.00273046
0.00286651
0.00301543
0.00317787
0.00335682
0.0035526
0.00376995
0.00400802
0.00427485
0.00456628
0.00489672
0.00525443
0.00566526
0.00610339
0.006614
0.00714545
0.00777905
0.00841363
0.00920174
0.00995391
0.0109258
0.00137733
0.00138947
0.00140179
0.00141495
0.00142871
0.00144358
0.00145905
0.00147606
0.00149376
0.00151348
0.00153376
0.00155664
0.0015797
0.00160615
0.00163172
0.00166092
0.00168834
0.00171987
0.00174925
0.00178243
0.00181406
0.00184483
0.00187729
0.00190793
0.00193827
0.00197092
0.00200699
0.00204667
0.00208999
0.00213673
0.00218691
0.00224041
0.00229739
0.0023579
0.00242222
0.00249051
0.00256307
0.00264018
0.00272214
0.00280924
0.00290191
0.0030006
0.00310587
0.00321833
0.00333873
0.0034678
0.00360662
0.00375611
0.00391783
0.00409297
0.00428344
0.00448994
0.00471587
0.00496192
0.00523335
0.00552934
0.00585889
0.00621671
0.00661959
0.00705147
0.00754465
0.00806311
0.00866654
0.00928173
0.0100268
0.0107478
0.0117005
0.0125312
0.0138592
0.0020438
0.00206905
0.00209482
0.00212148
0.00214889
0.00217739
0.00220682
0.00223774
0.00226989
0.00230387
0.00233922
0.00237656
0.0024153
0.0024559
0.00249796
0.00254142
0.00258647
0.00263213
0.00267941
0.00272672
0.00277666
0.00282825
0.00288203
0.00293909
0.00299766
0.00305805
0.0031208
0.00318627
0.00325468
0.00332616
0.00340083
0.00347881
0.00356024
0.00364529
0.00373418
0.00382711
0.00392443
0.00402647
0.00413357
0.00424617
0.00436476
0.00448993
0.00462239
0.00476292
0.0049125
0.00507213
0.00524315
0.00542689
0.00562524
0.00583978
0.0060732
0.00632703
0.00660393
0.00690489
0.00723552
0.00759495
0.00799313
0.00842311
0.00890433
0.00941421
0.00999581
0.0105968
0.011303
0.0120104
0.0128977
0.0137478
0.0149546
0.0160042
0.0181172
0.00338718
0.00343477
0.00348356
0.00353384
0.00358549
0.00363838
0.0036926
0.00374811
0.00380504
0.00386328
0.003923
0.00398394
0.0040464
0.00410995
0.0041751
0.00424125
0.00430883
0.00437739
0.0044475
0.0045189
0.0045918
0.00466614
0.00474197
0.00481938
0.00489837
0.00497906
0.00506163
0.00514631
0.00523332
0.00532285
0.00541513
0.00551037
0.00560883
0.00571077
0.00581649
0.00592628
0.00604062
0.00615993
0.00628473
0.00641563
0.00655324
0.00669843
0.0068521
0.00701529
0.00718928
0.00737538
0.00757528
0.00779089
0.00802431
0.00827768
0.00855402
0.00885534
0.00918574
0.00954476
0.00993711
0.0103636
0.0108332
0.0113386
0.0118988
0.0124888
0.0131632
0.0138568
0.0146939
0.0155474
0.0166716
0.0178546
0.0195641
0.0216367
0.0256364
0.0059926
0.00607074
0.00614881
0.00622729
0.00630607
0.00638508
0.00646438
0.00654397
0.00662389
0.00670407
0.00678455
0.00686527
0.00694633
0.00702766
0.00710941
0.00719152
0.00727414
0.00735724
0.00744088
0.00752515
0.00761002
0.00769552
0.00778159
0.00786835
0.00795579
0.00804413
0.00813353
0.00822427
0.00831661
0.008411
0.00850785
0.00860755
0.00871049
0.00881708
0.00892772
0.00904277
0.00916299
0.00928877
0.00942106
0.00956035
0.00970728
0.00986341
0.0100295
0.0102071
0.0103979
0.0106033
0.0108257
0.0110679
0.0113316
0.0116203
0.0119366
0.0122838
0.0126661
0.013083
0.0135344
0.0140291
0.0145651
0.0151468
0.0157803
0.0164708
0.0172641
0.0181331
0.0192278
0.0204839
0.0221857
0.0245727
0.0278787
0.0344885
0.0458258
0.0105324
0.0106264
0.010719
0.0108111
0.0109023
0.0109926
0.0110819
0.0111702
0.0112575
0.0113436
0.0114287
0.0115126
0.0115956
0.0116777
0.0117591
0.0118398
0.0119198
0.0119991
0.0120778
0.0121562
0.0122337
0.012311
0.0123875
0.0124642
0.0125402
0.0126171
0.0126939
0.0127714
0.0128494
0.0129298
0.0130132
0.0130995
0.0131894
0.0132839
0.0133832
0.0134869
0.0135973
0.0137138
0.0138386
0.0139707
0.0141121
0.0142662
0.0144328
0.0146147
0.0148131
0.0150279
0.0152645
0.0155268
0.0158158
0.0161373
0.0164929
0.0168866
0.0173178
0.017791
0.0182965
0.0188608
0.0194583
0.0201489
0.0209017
0.0218456
0.0229502
0.0243749
0.02629
0.0289576
0.0327959
0.0403204
0.0504618
0.0764643
0.115424
0.0174851
0.0175724
0.0176565
0.0177382
0.0178171
0.0178934
0.0179669
0.0180376
0.0181064
0.0181724
0.0182365
0.0182987
0.0183596
0.0184201
0.0184792
0.0185387
0.0185955
0.0186527
0.0187068
0.0187628
0.0188137
0.0188632
0.018911
0.0189536
0.0189945
0.0190402
0.0190855
0.0191369
0.0191891
0.0192506
0.0193136
0.0193729
0.0194373
0.0195163
0.0196007
0.0196781
0.0197799
0.0198822
0.0199927
0.0201183
0.0202507
0.0204051
0.0205929
0.0207941
0.0209878
0.0211918
0.0214251
0.0216975
0.0220104
0.0223679
0.0227659
0.0232103
0.0236922
0.024236
0.0248156
0.0255152
0.0262783
0.0273332
0.0285652
0.0304589
0.0327979
0.036335
0.0418486
0.0499196
0.0644092
0.0926946
0.130365
0.226315
0.343944
0.0278011
0.0278452
0.0278874
0.0279297
0.0279652
0.0279974
0.0280238
0.0280489
0.0280752
0.0281001
0.0281277
0.0281515
0.028179
0.028218
0.0282427
0.0282934
0.0283241
0.028415
0.0284591
0.0286079
0.0286574
0.0287035
0.0287167
0.0285865
0.0285039
0.0284868
0.0284689
0.0285429
0.0285787
0.0287519
0.0287994
0.0287002
0.0286885
0.0288839
0.028941
0.0288003
0.0290261
0.0289705
0.0289684
0.0290494
0.0291085
0.0293014
0.0298013
0.0300311
0.0299458
0.0299897
0.03017
0.0304676
0.0308583
0.0313245
0.0318514
0.0324573
0.0331275
0.0339504
0.0348425
0.0361447
0.0378247
0.0405334
0.0442495
0.0504013
0.0586871
0.0716214
0.0928834
0.120274
0.185763
0.272971
0.384121
0.468013
0.455744
0.0416538
0.04169
0.0417583
0.0418941
0.0418588
0.0419625
0.0419076
0.0419189
0.0419515
0.0419535
0.0420636
0.042104
0.0421254
0.0421175
0.0419569
0.0418738
0.041811
0.041951
0.0419055
0.0419541
0.0419983
0.0420036
0.0421464
0.0421967
0.0421968
0.0420024
0.0421107
0.0419955
0.0419814
0.0421885
0.0421717
0.0423101
0.0423714
0.0421859
0.0422806
0.0423056
0.0427427
0.0426662
0.0427333
0.0427325
0.0430839
0.0434127
0.0437811
0.0441336
0.0444985
0.0449193
0.0454342
0.0460439
0.0467547
0.0475677
0.0485107
0.049633
0.0510115
0.0529841
0.0550157
0.0609851
0.0689017
0.0808893
0.0977584
0.123433
0.15521
0.200937
0.264814
0.350081
0.421884
0.473605
0.430731
0.314615
0.209815
0.0744364
0.074352
0.0744044
0.074636
0.0745091
0.0747338
0.0745886
0.0745781
0.0748188
0.0748956
0.0746776
0.0745819
0.0748374
0.0748775
0.0745341
0.0746594
0.074355
0.0745149
0.0742081
0.0743518
0.074017
0.0740983
0.0737667
0.0738671
0.073494
0.0735481
0.0735126
0.0734328
0.0733191
0.0731737
0.0729872
0.072773
0.0725305
0.072371
0.0723097
0.071844
0.0723166
0.071759
0.0727593
0.0721692
0.0737942
0.073504
0.0746438
0.0753004
0.076044
0.077007
0.0783788
0.0801898
0.0825872
0.0856583
0.0896681
0.094791
0.101314
0.109941
0.121225
0.135936
0.151539
0.173798
0.208975
0.263761
0.308928
0.371431
0.426236
0.401956
0.303309
0.20553
0.15361
0.114209
0.0905932
0.238512
0.239227
0.240042
0.242039
0.243644
0.244745
0.244158
0.24655
0.246165
0.248599
0.248949
0.249162
0.25149
0.252199
0.251952
0.252524
0.252595
0.254781
0.255348
0.255765
0.254851
0.254212
0.256055
0.256405
0.256829
0.255795
0.254535
0.2532
0.251739
0.250141
0.24842
0.24661
0.244727
0.242803
0.240827
0.238819
0.236736
0.234596
0.23236
0.230029
0.227587
0.225011
0.222294
0.219391
0.216282
0.212903
0.20922
0.205138
0.200579
0.195441
0.189612
0.182897
0.175056
0.165838
0.154892
0.141716
0.125533
0.105357
0.0815256
0.0633411
0.0659093
0.0851513
0.101908
0.109252
0.108923
0.100226
0.0910983
0.0861558
0.0850745
0.000251149
0.000251434
0.000251873
0.000252244
0.000252799
0.000253284
0.000253843
0.000254371
0.000255096
0.000255864
0.000256306
0.000256785
0.000257897
0.000259238
0.000260234
0.000260713
0.00026159
0.000262191
0.000262628
0.000263048
0.000263604
0.000263694
0.000264181
0.000264678
0.000265402
0.000266299
0.000267374
0.000267949
0.000268119
0.000268219
0.000268996
0.000270027
0.000271529
0.000271011
0.000270356
0.000270182
0.000270337
0.000269872
0.000269198
0.000268845
0.000268316
0.000267767
0.00026759
0.000266402
0.000265502
0.000264269
0.000263732
0.000262678
0.00026144
0.000260583
0.000259776
0.000259666
0.000259429
0.000259039
0.000258319
0.000257986
0.000257442
0.000256818
0.000255806
0.000252918
0.000253226
0.000253503
0.000253795
0.000254115
0.000254462
0.00025487
0.000255358
0.000256044
0.000256649
0.000257174
0.00025808
0.000259358
0.00026008
0.000260665
0.000261075
0.000261989
0.000262531
0.000262907
0.000263361
0.000263875
0.000264026
0.000264541
0.000265141
0.000265821
0.000266684
0.000267793
0.000268384
0.000268581
0.000268673
0.000269477
0.000270457
0.000271962
0.000271756
0.000271231
0.000270881
0.000270944
0.000270767
0.000270164
0.000269854
0.000269028
0.000268933
0.000268661
0.000268131
0.000267261
0.000266058
0.000265297
0.000264442
0.000263707
0.000262634
0.000261634
0.000260903
0.000260518
0.000260134
0.000259694
0.000259277
0.000258858
0.000258421
0.000257934
0.000254334
0.000254742
0.00025507
0.00025557
0.000255893
0.000256297
0.000256646
0.000257125
0.000257723
0.00025833
0.000259052
0.000260036
0.000260686
0.000261067
0.000261479
0.000262
0.000262955
0.000263338
0.000263628
0.000264135
0.00026459
0.000264859
0.000265445
0.000266126
0.000266794
0.000267702
0.000268796
0.000269445
0.000269643
0.000269793
0.000270602
0.000271535
0.000273117
0.000273061
0.000272552
0.000272366
0.000272451
0.000272393
0.000271946
0.000271616
0.000271059
0.000270403
0.000270431
0.000270261
0.000269813
0.000268883
0.00026803
0.000267098
0.000266372
0.000265631
0.000264829
0.00026388
0.00026296
0.000262384
0.000261722
0.00026141
0.000261376
0.00026132
0.000260956
0.00025651
0.000257012
0.000257545
0.000257954
0.00025832
0.000258683
0.000259066
0.000259566
0.000260121
0.000260706
0.000261373
0.000261925
0.000262259
0.00026257
0.000263087
0.000263905
0.000264498
0.00026479
0.000265063
0.000265672
0.000266185
0.000266542
0.000267168
0.000267914
0.000268533
0.000269454
0.000270544
0.000271254
0.000271478
0.000271682
0.000272502
0.000273384
0.000274942
0.000275106
0.000274791
0.000274519
0.000274494
0.000274607
0.000274485
0.000274181
0.000273704
0.000272949
0.00027266
0.000272746
0.000272515
0.000271922
0.000271382
0.000270721
0.000269968
0.000269291
0.000268616
0.000267938
0.000267152
0.00026644
0.000265748
0.000264969
0.000264751
0.000264733
0.000264668
0.000260472
0.000260893
0.000261281
0.000261608
0.000261998
0.000262296
0.000262662
0.000262949
0.000263318
0.000263744
0.000264102
0.000264416
0.000264689
0.000265117
0.000265744
0.00026634
0.000266723
0.000266967
0.000267332
0.000268103
0.000268608
0.000269018
0.000269674
0.000270428
0.000271004
0.000271972
0.000273047
0.00027381
0.000274078
0.000274331
0.000275172
0.000276036
0.000277531
0.000278077
0.000277865
0.000277525
0.000277534
0.000277933
0.00027768
0.000277701
0.000277486
0.000276736
0.000276268
0.00027628
0.000276203
0.000275739
0.000275112
0.000274778
0.000274417
0.00027388
0.000273317
0.000272815
0.000272329
0.000271773
0.000271259
0.000270687
0.000270185
0.000269399
0.000269486
0.000264251
0.000264254
0.000264494
0.000265084
0.000265393
0.000265746
0.000266072
0.000266515
0.000266909
0.000267196
0.000267488
0.000267737
0.00026808
0.000268577
0.000269113
0.000269492
0.000269788
0.000270065
0.000270675
0.000271468
0.000271985
0.000272453
0.000273141
0.000273873
0.000274443
0.000275473
0.000276547
0.000277365
0.000277694
0.000278003
0.000278885
0.000279733
0.000281274
0.000281834
0.000282004
0.000281804
0.000281641
0.000281941
0.00028244
0.000282198
0.000282156
0.000281862
0.000281388
0.000281396
0.000281435
0.000281346
0.000280888
0.000280064
0.0002797
0.000279704
0.000279319
0.0002787
0.00027805
0.000277537
0.000276914
0.000276381
0.00027586
0.000276046
0.000276092
0.000269238
0.000269472
0.000269798
0.000269925
0.000270299
0.000270623
0.000270829
0.000270867
0.000271309
0.000271616
0.000271932
0.00027224
0.000272616
0.000273028
0.000273399
0.000273684
0.000273972
0.000274473
0.000275293
0.000275982
0.000276503
0.000277012
0.000277709
0.000278375
0.00027896
0.000280059
0.000281141
0.000282012
0.000282409
0.000282785
0.000283721
0.000284586
0.000286069
0.000287107
0.000287169
0.000287065
0.000287406
0.000287335
0.000287743
0.000288225
0.000288442
0.000288086
0.000287554
0.000287329
0.000287589
0.000287633
0.000288014
0.000287771
0.000287131
0.000287183
0.000287054
0.0002869
0.000286732
0.000286593
0.000286413
0.000285893
0.000285304
0.000284435
0.000284362
0.000274932
0.000275096
0.000275564
0.000275648
0.000275904
0.000276004
0.000276406
0.000276496
0.00027683
0.000277272
0.00027764
0.000277947
0.000278322
0.000278674
0.000278987
0.000279316
0.000279779
0.000280495
0.000281263
0.000281885
0.000282438
0.000283006
0.000283658
0.000284277
0.000284926
0.000286107
0.000287224
0.000288155
0.000288634
0.000289095
0.000290107
0.000291018
0.0002925
0.000293597
0.000294309
0.00029418
0.000294223
0.000294728
0.000294911
0.000295578
0.000296033
0.000296713
0.000296456
0.00029577
0.000295511
0.000295622
0.000295811
0.000296235
0.000296792
0.000296777
0.000296457
0.000296774
0.000296874
0.000296857
0.000296938
0.00029685
0.000296801
0.000296674
0.000296588
0.000282363
0.000282739
0.000282698
0.000282819
0.000283068
0.000283465
0.000283547
0.000283644
0.000284141
0.000284504
0.00028493
0.000285417
0.000285783
0.000286105
0.000286524
0.000286941
0.000287516
0.000288221
0.000288877
0.000289451
0.000290014
0.000290588
0.000291191
0.000291813
0.000292542
0.000293824
0.000294972
0.000295967
0.000296538
0.000297098
0.000298203
0.000299187
0.000300681
0.000301971
0.000302744
0.000302984
0.000303351
0.000303727
0.000304306
0.000304548
0.000305537
0.000305832
0.000306045
0.000306241
0.00030672
0.000306811
0.0003074
0.000307204
0.000307342
0.000307816
0.000307988
0.000308718
0.000308431
0.000308455
0.000308754
0.000308957
0.000309375
0.00031
0.000309884
0.000292143
0.000292209
0.000292501
0.000292406
0.000292477
0.000292605
0.000292998
0.000293173
0.000293761
0.000293874
0.000294473
0.000294717
0.000295341
0.000295637
0.00029608
0.000296624
0.000297212
0.000297919
0.000298465
0.000299068
0.000299641
0.00030023
0.000300845
0.000301537
0.000302403
0.000303808
0.000305013
0.000306097
0.000306787
0.000307476
0.000308706
0.000309803
0.00031133
0.000312769
0.000313827
0.000314643
0.00031459
0.000315397
0.00031603