/*--------------------------------*- C++ -*----------------------------------*\
| =========                 |                                                 |
| \\      /  F ield         | OpenFOAM: The Open Source CFD Toolbox           |
|  \\    /   O peration     | Version:  2312                                  |
|   \\  /    A nd           | Website:  www.openfoam.com                      |
|    \\/     M anipulation  |                                                 |
\*---------------------------------------------------------------------------*/
FoamFile
{
    version     2.0;
    format      ascii;
    arch        "LSB;label=32;scalar=64";
    class       volScalarField;
    location    "700";
    object      k;
}
// * * * * * * * * * * * * * * * * * * * * * * * * * * * * * * * * * * * * * //

dimensions      [0 2 -2 0 0 0 0];

internalField   nonuniform List<scalar> 
76025
(
0.00194656
0.00194371
0.00194215
0.00194053
0.00193918
0.00193963
0.00193862
0.00193653
0.00193356
0.00193035
0.00192911
0.00192861
0.00192671
0.00192676
0.001927
0.00192486
0.00192467
0.00192192
0.00191944
0.00191945
0.00191756
0.00191838
0.0019169
0.00191766
0.00191679
0.00191542
0.00191714
0.00191641
0.00191618
0.00191894
0.00191922
0.00192034
0.0019198
0.00192432
0.00192263
0.0019245
0.00192505
0.00192887
0.00193775
0.00195218
0.00195559
0.00195836
0.00196788
0.00197778
0.00198988
0.0020037
0.00202117
0.0020395
0.00206221
0.00208338
0.00210927
0.00213087
0.00216079
0.00218197
0.00221681
0.00224024
0.00228024
0.00230656
0.00235211
0.00237979
0.00242949
0.00245952
0.00251853
0.00255174
0.0026189
0.00267924
0.00276196
0.00289732
0.00298564
0.00196227
0.00195943
0.00195761
0.00195697
0.00195654
0.00195651
0.00195474
0.00195212
0.0019499
0.00194987
0.00194756
0.00194672
0.00194497
0.00194433
0.00194438
0.00194596
0.00194519
0.0019436
0.00194479
0.00194469
0.00194677
0.00194603
0.00194745
0.00194751
0.00194838
0.00194975
0.00195176
0.00195216
0.00195736
0.00195937
0.00195722
0.00195726
0.00196041
0.00196769
0.00197836
0.00198323
0.00198222
0.00198518
0.00199117
0.00200001
0.00201195
0.00202915
0.00205133
0.00205836
0.00206145
0.00207063
0.00208341
0.00209799
0.00211609
0.00213386
0.00215474
0.00217458
0.00219931
0.00222406
0.00225403
0.0022866
0.00232713
0.00236452
0.00241389
0.0024568
0.00251778
0.00255989
0.00262525
0.00266704
0.00275076
0.00281135
0.00294317
0.00305056
0.00321875
0.00198477
0.00198229
0.00197964
0.0019768
0.00197554
0.00197538
0.00197543
0.00197305
0.00197359
0.0019731
0.00197112
0.0019726
0.00197233
0.0019726
0.00197257
0.00197322
0.00197361
0.00197266
0.00197542
0.00197285
0.00197566
0.00197695
0.00197669
0.00197854
0.00197975
0.00198222
0.00198433
0.00198586
0.00198924
0.0019947
0.00199874
0.00200417
0.002007
0.00201912
0.00202436
0.00202182
0.00201982
0.00202512
0.00203156
0.00204397
0.00205314
0.00206901
0.00208605
0.00210525
0.0021219
0.00213826
0.00215429
0.00217305
0.00219424
0.0022125
0.00223092
0.00224837
0.0022742
0.00230142
0.00233543
0.00237546
0.00241938
0.00246245
0.0025188
0.00257678
0.00264669
0.00269921
0.00277139
0.00281984
0.00290057
0.00298211
0.00310244
0.00324458
0.00341807
0.00201015
0.00200994
0.00200832
0.00200803
0.0020065
0.00200425
0.002
0.00200068
0.00200112
0.00200062
0.00199849
0.00199812
0.0019983
0.00199808
0.00200155
0.00200294
0.00200458
0.00200582
0.0020079
0.0020059
0.002004
0.00200545
0.00200528
0.00200689
0.00200919
0.00201238
0.0020189
0.00202392
0.00203132
0.00203899
0.00204352
0.00205625
0.00206215
0.00206787
0.00206557
0.00207005
0.0020788
0.00208701
0.00209236
0.00210104
0.00211103
0.00212303
0.00213976
0.0021603
0.00218109
0.00220395
0.00223291
0.00227037
0.00231581
0.00233406
0.00233158
0.00233764
0.00236089
0.00239052
0.00242736
0.00247744
0.00252266
0.00257835
0.00264608
0.00272633
0.00279846
0.00286263
0.00293203
0.00297963
0.00306487
0.00315349
0.00329293
0.00345297
0.00365376
0.00203953
0.00204038
0.00203965
0.00203962
0.00203915
0.00204073
0.00204088
0.00203968
0.0020378
0.00203935
0.0020388
0.00203894
0.00203876
0.00204126
0.00204224
0.00204163
0.00204542
0.00204298
0.00204577
0.00204431
0.00204431
0.00204697
0.00204937
0.00205262
0.00205841
0.00206671
0.00206968
0.00207055
0.00207707
0.00208821
0.00210273
0.00210935
0.00210756
0.00211009
0.00211564
0.00212536
0.00213857
0.00216007
0.00217441
0.00218218
0.0021885
0.0022048
0.00221968
0.00224241
0.00226404
0.00228364
0.00230659
0.00233731
0.00237536
0.00238982
0.00239315
0.0024119
0.00245026
0.00248924
0.00253903
0.00259962
0.00265459
0.00272507
0.0028038
0.00288941
0.0029509
0.00302209
0.00308139
0.00313819
0.00323576
0.00334855
0.00351692
0.00370053
0.00394068
0.00207889
0.00207893
0.00208178
0.00208234
0.00208341
0.00208425
0.00208449
0.00208396
0.00208445
0.0020843
0.00208809
0.00208941
0.00209006
0.00209217
0.00209274
0.00209522
0.00209836
0.00209955
0.00210524
0.00210693
0.0021081
0.00210673
0.0021107
0.00211462
0.00212263
0.0021351
0.00214
0.00213893
0.00214341
0.00214735
0.00216128
0.00216906
0.00218475
0.0021926
0.00219855
0.00220136
0.00220941
0.00222266
0.00224085
0.00225323
0.00227965
0.00230033
0.00232913
0.00236948
0.00238545
0.00237828
0.00237971
0.00239535
0.00241313
0.00244254
0.00247744
0.00251416
0.00256901
0.00261116
0.00267483
0.00273208
0.00280058
0.00287098
0.00294604
0.00301079
0.00306686
0.00314003
0.00319584
0.00329435
0.00341873
0.00357827
0.00377641
0.00400004
0.00428497
0.00212207
0.00212133
0.00212475
0.00212247
0.00212556
0.00212411
0.00212409
0.00212738
0.00212977
0.00213551
0.00213766
0.00213911
0.0021397
0.00214175
0.00214383
0.00214607
0.00214969
0.00215273
0.00216188
0.00216655
0.00217718
0.00217619
0.00217543
0.00217492
0.00217748
0.00218099
0.0021856
0.00219121
0.00219862
0.00220629
0.00221753
0.00222823
0.00224119
0.00225078
0.00226473
0.00227523
0.00228968
0.00230681
0.00232566
0.00234678
0.00237251
0.00240979
0.00243988
0.00245574
0.00246571
0.00248261
0.00249814
0.0025218
0.00254374
0.00257816
0.00261316
0.00265533
0.00271235
0.00276037
0.00282714
0.00289476
0.00296377
0.00304346
0.0031106
0.00317971
0.00323101
0.00330841
0.0033878
0.00353454
0.00368028
0.00388522
0.0041082
0.00437781
0.00472228
0.00218711
0.00218763
0.00218928
0.00218688
0.00219053
0.00219127
0.00219099
0.00218857
0.00218967
0.00219355
0.00220117
0.00219916
0.00220162
0.00220106
0.00220524
0.00221285
0.00222363
0.00222783
0.00222806
0.00223221
0.00223979
0.00224713
0.00225653
0.0022673
0.00228013
0.00228571
0.00228485
0.002288
0.00229818
0.00230667
0.00232017
0.00233731
0.00234919
0.00235835
0.00236583
0.00237526
0.00238946
0.00240662
0.00242931
0.00245201
0.00247775
0.00249931
0.00252931
0.00256498
0.00259395
0.00262242
0.00264076
0.00267019
0.00269666
0.00274144
0.00278901
0.00284306
0.00291705
0.00297557
0.00305979
0.00314702
0.00321701
0.00331045
0.00339727
0.00343719
0.00346789
0.00355266
0.00365932
0.00383555
0.00400004
0.0042623
0.00450075
0.00486124
0.00524817
0.00224669
0.00224851
0.00225125
0.00225424
0.00225808
0.00226325
0.00227128
0.00227358
0.00227194
0.00227499
0.00228084
0.00228732
0.00229242
0.00229849
0.00230967
0.00231221
0.00231163
0.00231447
0.00231937
0.00232628
0.00233657
0.00234768
0.00235446
0.00237271
0.0023778
0.00237478
0.00237534
0.00238169
0.00239281
0.0024058
0.0024205
0.00244082
0.00245424
0.00247858
0.00249437
0.00252652
0.00254966
0.00257225
0.00259084
0.00260247
0.00261062
0.00262102
0.00263937
0.00266257
0.00269237
0.00273216
0.00277077
0.00282634
0.00288113
0.00295068
0.00302344
0.00309654
0.00319178
0.00326143
0.00337246
0.00347979
0.00355994
0.00367046
0.00380139
0.00383596
0.0038085
0.0038741
0.00400819
0.00419989
0.0044143
0.00472283
0.00500739
0.00548016
0.0058831
0.00233182
0.00234003
0.00234134
0.00234298
0.00234635
0.00235157
0.00235541
0.00235793
0.00236745
0.00237105
0.00237567
0.0023789
0.00237505
0.00237487
0.00237882
0.00238335
0.00238979
0.00239743
0.00240759
0.00241823
0.00242987
0.00244391
0.00245621
0.0024714
0.00248263
0.00249476
0.00251994
0.00252967
0.00252422
0.0025288
0.00253863
0.00255644
0.00257553
0.00259922
0.00262299
0.00264696
0.00267189
0.00268877
0.00271192
0.00272531
0.00275086
0.00276803
0.00280369
0.00283324
0.00288205
0.00292797
0.00298802
0.00305201
0.00312041
0.00320128
0.0032793
0.00336756
0.00343857
0.0035318
0.00363081
0.0037008
0.00380975
0.00394612
0.00397611
0.00395768
0.00404765
0.00420017
0.00440513
0.0046466
0.00493641
0.00529359
0.00567179
0.00623276
0.00666536
0.00243167
0.00243908
0.00244561
0.00245105
0.00245717
0.00246324
0.00246954
0.00247342
0.00248232
0.00248989
0.00249633
0.00250322
0.00251797
0.00252227
0.00252063
0.00252474
0.00254146
0.00254732
0.00254516
0.00254314
0.00255076
0.00256701
0.00257851
0.00260226
0.00262626
0.00264364
0.0026573
0.00266662
0.00267654
0.00268969
0.00270722
0.00272302
0.00274144
0.00275687
0.00277772
0.00279429
0.00281796
0.00283443
0.00286157
0.00288305
0.00291761
0.0029488
0.00299409
0.00304095
0.00309785
0.00316261
0.00322462
0.00330237
0.00337122
0.00345527
0.00353075
0.00360668
0.00370117
0.00378516
0.00386627
0.0039735
0.00410582
0.00416042
0.00417056
0.00428953
0.00446363
0.00467707
0.00494257
0.00523757
0.00561436
0.00601994
0.00653684
0.00711217
0.00773118
0.00255594
0.00256211
0.0025681
0.0025741
0.00257998
0.0025876
0.00259492
0.00260123
0.00260844
0.0026157
0.00262166
0.00263015
0.00263879
0.00265049
0.00265845
0.00266955
0.00268428
0.0026957
0.00270882
0.00272722
0.00275409
0.00276479
0.0027658
0.00276657
0.00277984
0.00280055
0.00282104
0.00284
0.00285796
0.00287569
0.00289514
0.00291655
0.00294394
0.00297779
0.00302244
0.00307649
0.00308243
0.00309734
0.00310999
0.00313097
0.00316309
0.00320261
0.00325058
0.00330234
0.00336312
0.00342301
0.00349462
0.00355923
0.00363143
0.00371368
0.00378681
0.00385991
0.00392712
0.00405079
0.00413603
0.00423421
0.00427173
0.00439798
0.00456784
0.0047806
0.00502126
0.00530533
0.00563453
0.00601289
0.00646832
0.00696352
0.00758839
0.00820397
0.00903715
0.00269794
0.00270607
0.00271605
0.00272818
0.0027389
0.00274727
0.00275934
0.00277359
0.00278354
0.0028006
0.00282273
0.00282136
0.00283224
0.00283246
0.00283885
0.00285078
0.00286586
0.00288197
0.00289957
0.00291868
0.00293507
0.00295841
0.00298525
0.00300413
0.00301664
0.00302718
0.00303746
0.00304918
0.00306348
0.00308057
0.00310115
0.00312588
0.00315464
0.0031889
0.00322591
0.00326298
0.0032987
0.00333134
0.0033716
0.00340818
0.00345418
0.00349477
0.00354703
0.00359834
0.00365122
0.00371707
0.00378134
0.00384673
0.00392008
0.0040405
0.00412228
0.00421262
0.00423381
0.00431064
0.00442394
0.00457647
0.00475715
0.00496807
0.00520117
0.00547225
0.0057781
0.00613574
0.00654307
0.00701382
0.00754883
0.00815146
0.00883541
0.00956859
0.0104295
0.00291106
0.0029292
0.00293421
0.00293482
0.00294951
0.0029669
0.00298339
0.0029968
0.00300762
0.00301609
0.00302504
0.00302938
0.00303477
0.00303845
0.00304682
0.00305519
0.0030698
0.00308304
0.00310369
0.0031217
0.00314571
0.00316735
0.00319851
0.00322246
0.00325438
0.00327601
0.00331121
0.00333628
0.00337786
0.00340797
0.0034597
0.00349457
0.00355293
0.00358681
0.00365154
0.00368218
0.0037588
0.00378858
0.0038222
0.00384722
0.00381784
0.00380189
0.00381999
0.00385911
0.00391089
0.00397317
0.00404239
0.00412224
0.00420981
0.00430725
0.00441464
0.00454236
0.00469129
0.00486249
0.00504946
0.00525899
0.00549068
0.00575468
0.00605269
0.00639397
0.00678177
0.00722145
0.00771915
0.00827393
0.00889431
0.00957536
0.0103194
0.0111325
0.0119926
0.00317433
0.0031901
0.00321005
0.00323563
0.0032448
0.00324078
0.00324265
0.003249
0.00325988
0.00327392
0.00329044
0.00330667
0.00332322
0.00334109
0.0033568
0.00337492
0.00339078
0.00341279
0.00343079
0.00346035
0.00348431
0.00352322
0.00355185
0.00359902
0.00362973
0.00368489
0.00371686
0.003782
0.00381453
0.00389027
0.00392147
0.00395533
0.00391847
0.00399063
0.00395795
0.00394731
0.00396304
0.00398674
0.00401828
0.00405894
0.00410679
0.00416447
0.00423158
0.00430857
0.00439393
0.00448907
0.00459289
0.00470754
0.00483251
0.00497114
0.00512363
0.00529342
0.00548012
0.0056892
0.00592238
0.00618665
0.00648349
0.00681982
0.00719692
0.00762027
0.00809208
0.00861356
0.00919049
0.00981614
0.0105025
0.0112346
0.0120227
0.0128707
0.013699
0.00351747
0.00353821
0.00355683
0.00358189
0.00360798
0.0036236
0.00364497
0.00368053
0.00369215
0.00368531
0.00368416
0.00369493
0.00371033
0.00373037
0.00375026
0.00377506
0.00379608
0.00382576
0.00385045
0.00388533
0.00391584
0.0039575
0.0039931
0.00404034
0.00408161
0.00413135
0.00417699
0.00422582
0.00427239
0.00432023
0.00436641
0.00441713
0.00445084
0.00453555
0.00457682
0.00462238
0.00465611
0.00462929
0.0046083
0.0046409
0.00470291
0.00478583
0.00488166
0.00498778
0.00510299
0.00522862
0.00536527
0.0055153
0.00567949
0.00586112
0.00606149
0.00628462
0.00653202
0.00680811
0.00711419
0.00745484
0.00783088
0.00824668
0.00870233
0.00920109
0.00974326
0.0103289
0.0109615
0.0116337
0.0123578
0.0131105
0.0139251
0.0147352
0.0156404
0.00394939
0.00396977
0.00398848
0.00400862
0.00402958
0.00404782
0.00406587
0.00408382
0.00409953
0.00411386
0.00412903
0.00414642
0.00416671
0.00419116
0.0042194
0.00424924
0.00427978
0.00431069
0.00434291
0.00437477
0.00440907
0.00444219
0.00447879
0.0045129
0.00455223
0.00458758
0.00462999
0.00466685
0.00471283
0.00475338
0.00480215
0.00484969
0.00489982
0.00495662
0.00501728
0.00508279
0.00516017
0.00524346
0.00533638
0.00544313
0.00555962
0.00568498
0.00581924
0.00596381
0.00611997
0.00628985
0.00647497
0.00667783
0.00689991
0.00714339
0.00740975
0.00770184
0.00802073
0.00836917
0.00874778
0.00915924
0.00960344
0.0100831
0.0105969
0.0111478
0.0117336
0.0123561
0.0130143
0.0137064
0.0144322
0.0151892
0.0159681
0.0167793
0.0175848
0.00453433
0.00455553
0.00457552
0.00459593
0.00461575
0.004636
0.00465524
0.0046758
0.00469535
0.00471754
0.00473893
0.0047637
0.00478851
0.00481646
0.00484956
0.00488362
0.00492281
0.00496524
0.00501044
0.00505468
0.00510083
0.00514664
0.00519495
0.00524414
0.00529671
0.00535055
0.00540838
0.00546868
0.00553359
0.00560298
0.00567838
0.00576046
0.00585131
0.00594813
0.00605464
0.00616764
0.00628791
0.00641643
0.00655384
0.00670063
0.00685802
0.00702734
0.00720963
0.00740621
0.00761818
0.00784703
0.0080939
0.00836036
0.00864746
0.00895708
0.00928924
0.00964525
0.0100256
0.0104318
0.010864
0.0113235
0.0118102
0.0123255
0.0128688
0.0134413
0.0140417
0.0146702
0.0153263
0.0160044
0.0167072
0.0174273
0.0181528
0.0189078
0.0195871
0.00538278
0.0054092
0.00543442
0.00545835
0.00548193
0.00550428
0.00552723
0.00554965
0.00557419
0.00559899
0.00562765
0.00565685
0.00569186
0.00572771
0.00577186
0.0058169
0.00587159
0.00592596
0.00599003
0.00605531
0.00613078
0.00621179
0.00629883
0.00639411
0.00649307
0.00659408
0.00669696
0.00680291
0.00691258
0.00702757
0.00714828
0.00727598
0.00741095
0.00755388
0.00770509
0.00786525
0.00803474
0.0082144
0.00840487
0.00860665
0.00882034
0.00904666
0.00928631
0.00954004
0.00980848
0.0100924
0.0103923
0.0107092
0.0110435
0.0113963
0.011768
0.0121603
0.0125719
0.0130039
0.0134566
0.0139309
0.0144274
0.0149463
0.0154884
0.0160524
0.0166378
0.0172428
0.0178659
0.0184969
0.019144
0.0197872
0.0204289
0.0210564
0.0216421
0.00669998
0.00674708
0.00679344
0.006839
0.00688429
0.00692876
0.00697373
0.00701901
0.00706658
0.00711605
0.00716976
0.00722714
0.00729093
0.0073602
0.00743764
0.00752171
0.00761443
0.00771401
0.00782156
0.00793632
0.00805811
0.00818635
0.00832025
0.00845873
0.00860159
0.0087487
0.00890008
0.00905607
0.00921709
0.00938366
0.00955629
0.00973541
0.00992148
0.0101148
0.0103158
0.0105247
0.0107417
0.0109673
0.0112016
0.0114448
0.0116972
0.011959
0.0122306
0.0125126
0.0128053
0.0131092
0.0134248
0.013753
0.0140943
0.0144497
0.0148203
0.015207
0.015611
0.0160336
0.0164733
0.0169303
0.0174064
0.0178992
0.0184136
0.0189387
0.0194808
0.02003
0.0205831
0.0211268
0.0216751
0.0221937
0.0226931
0.0231466
0.0236177
0.00896615
0.0090587
0.00915217
0.00924679
0.00934238
0.00943865
0.00953596
0.00963469
0.00973561
0.00983946
0.00994722
0.0100598
0.0101781
0.0103029
0.0104345
0.0105733
0.0107187
0.0108711
0.0110292
0.0111928
0.0113608
0.0115331
0.0117092
0.011889
0.0120721
0.0122585
0.0124481
0.012641
0.0128373
0.0130368
0.0132399
0.0134465
0.0136568
0.0138709
0.014089
0.0143113
0.0145378
0.014769
0.0150048
0.0152455
0.0154914
0.0157427
0.0159999
0.0162636
0.0165343
0.0168127
0.0170995
0.017396
0.0177032
0.0180221
0.0183542
0.0187005
0.0190622
0.0194413
0.0198384
0.0202494
0.0206783
0.0211179
0.0215806
0.022028
0.0224982
0.0229462
0.0233809
0.0237815
0.0241698
0.0244948
0.0247849
0.025061
0.0254715
0.0130352
0.013186
0.0133378
0.013491
0.013645
0.0137994
0.0139541
0.0141091
0.0142647
0.0144209
0.0145781
0.0147369
0.0148974
0.0150603
0.0152256
0.0153936
0.0155642
0.0157372
0.0159124
0.0160896
0.0162686
0.0164492
0.016631
0.0168137
0.0169969
0.0171805
0.0173644
0.0175486
0.017733
0.0179176
0.0181024
0.0182876
0.0184734
0.0186597
0.0188469
0.0190349
0.0192241
0.0194146
0.0196068
0.0198009
0.0199971
0.0201961
0.0203984
0.0206043
0.020815
0.0210314
0.0212546
0.0214867
0.021728
0.0219801
0.0222436
0.0225205
0.0228097
0.0231188
0.0234381
0.0237749
0.0241321
0.0244913
0.0248735
0.025173
0.0255535
0.0258184
0.0260825
0.0262341
0.0263805
0.0264507
0.0265389
0.0270374
0.0277178
0.0189987
0.0191743
0.019349
0.0195237
0.0196979
0.0198712
0.0200434
0.0202143
0.0203838
0.0205518
0.020718
0.0208826
0.0210457
0.0212073
0.0213676
0.0215267
0.0216847
0.0218417
0.0219974
0.022152
0.0223051
0.0224568
0.0226065
0.0227544
0.0228998
0.023043
0.0231834
0.0233212
0.0234561
0.0235883
0.0237182
0.0238463
0.0239727
0.0240979
0.0242217
0.0243444
0.0244664
0.0245872
0.0247086
0.0248283
0.024947
0.0250674
0.025188
0.0253081
0.0254321
0.0255602
0.0256944
0.0258385
0.0259875
0.0261451
0.0263092
0.0264871
0.0266642
0.0268844
0.0270802
0.0273246
0.0275921
0.027833
0.02805
0.0280719
0.0282319
0.0280926
0.0280857
0.0279053
0.0280058
0.02793
0.0287197
0.0295031
0.0307503
0.0262395
0.0264053
0.0265675
0.0267273
0.0268842
0.027038
0.0271886
0.027336
0.0274798
0.0276199
0.0277559
0.0278878
0.0280155
0.0281389
0.0282583
0.0283735
0.0284845
0.028591
0.0286931
0.0287916
0.028886
0.0289773
0.0290643
0.0291499
0.029231
0.0293116
0.0293866
0.0294599
0.0295255
0.0295855
0.0296412
0.0296934
0.0297425
0.0297884
0.0298314
0.0298712
0.0299082
0.0299416
0.0299776
0.0299946
0.0300135
0.0300416
0.0300556
0.0300579
0.0300794
0.0300995
0.0301268
0.0301648
0.0301884
0.0302157
0.0302418
0.0302827
0.030273
0.03049
0.0304888
0.030499
0.03041
0.0302398
0.0299623
0.0296242
0.0293536
0.0290392
0.0289854
0.0289231
0.0294349
0.0303767
0.032942
0.0367398
0.0427772
0.0338068
0.0339262
0.0340389
0.0341461
0.0342479
0.0343449
0.0344374
0.034525
0.0346089
0.0346877
0.0347609
0.0348308
0.0348954
0.0349542
0.0350077
0.035055
0.0350932
0.0351198
0.0351387
0.0351533
0.0351619
0.0351699
0.0351718
0.0351856
0.0351886
0.035224
0.0352359
0.0353192
0.0353417
0.0353495
0.0353454
0.0353308
0.0353067
0.0352745
0.0352358
0.0351915
0.0351416
0.0350863
0.035017
0.0348358
0.0347625
0.0346948
0.0345121
0.0342853
0.0342108
0.0340456
0.0338708
0.0337096
0.0335196
0.0333171
0.0331043
0.0328709
0.0326048
0.0323228
0.0319765
0.031615
0.0312296
0.0308057
0.0304787
0.0300725
0.0300949
0.0300697
0.030577
0.0317559
0.0347579
0.0387903
0.0458855
0.0610125
0.0832657
0.0408384
0.0408581
0.0408724
0.0408836
0.0408916
0.0409001
0.0409082
0.0409101
0.0409234
0.0409315
0.0409296
0.0409708
0.0409796
0.0409791
0.040969
0.0409432
0.0408681
0.0407502
0.0406274
0.0405009
0.0403724
0.0402387
0.0401013
0.0399623
0.0398163
0.0396677
0.0395141
0.0393567
0.0391914
0.0390183
0.0388418
0.038661
0.0384736
0.0382813
0.0380854
0.0378847
0.0376725
0.0374551
0.0372338
0.0369971
0.0367566
0.0365142
0.0362632
0.0360052
0.0357572
0.0355012
0.0352333
0.0349465
0.0346346
0.0342959
0.0339373
0.0335444
0.0331242
0.0326759
0.0321432
0.0317115
0.0313347
0.0308499
0.031127
0.0311978
0.0327508
0.0341693
0.037349
0.042139
0.0512924
0.0653114
0.084345
0.10314
0.110261
0.0441527
0.0441026
0.0440421
0.0439739
0.0439011
0.0438218
0.0437386
0.0436485
0.0435547
0.0434571
0.0433547
0.0432505
0.0431433
0.0430306
0.0429133
0.0427894
0.0426555
0.042507
0.0423489
0.0421793
0.0420002
0.0418142
0.0416204
0.0414195
0.0412133
0.0410015
0.0407805
0.0405554
0.0403228
0.0400846
0.0398451
0.0395989
0.0393511
0.0391033
0.0388496
0.0386027
0.0383464
0.0380995
0.037844
0.0375911
0.0373221
0.0370446
0.0367594
0.0364576
0.036134
0.0357759
0.0353783
0.0349267
0.0344299
0.0338543
0.033288
0.0326415
0.0321183
0.0315788
0.0314039
0.0317568
0.0325009
0.033355
0.0354697
0.0397954
0.0449981
0.051315
0.0600828
0.0720684
0.0851112
0.0968789
0.0999236
0.0926567
0.0794114
0.0432369
0.0431162
0.0429923
0.0428688
0.0427488
0.0426246
0.0424966
0.0423627
0.042223
0.0420804
0.0419336
0.0417806
0.041621
0.0414539
0.0412863
0.0411016
0.0409205
0.040722
0.0405235
0.0403083
0.0400897
0.0398544
0.0396189
0.0393641
0.0391065
0.0388336
0.0385458
0.0382446
0.0379293
0.0376012
0.0372598
0.036907
0.0365383
0.0361635
0.035761
0.0353684
0.0349323
0.0345215
0.0340624
0.0336316
0.0331548
0.0326954
0.0322209
0.031748
0.0312939
0.0308593
0.030468
0.0301003
0.0299657
0.029786
0.0301963
0.03015
0.0313024
0.0318537
0.0331519
0.0354526
0.0378516
0.0419363
0.0472617
0.0594538
0.0677807
0.0730603
0.0802
0.0822207
0.076818
0.0656837
0.0566403
0.0499465
0.0454167
0.0332201
0.0331678
0.0332608
0.0333519
0.0334559
0.0337339
0.0338508
0.0339811
0.0340926
0.0341459
0.0341661
0.03439
0.034467
0.0345308
0.0347632
0.0347171
0.0349223
0.0349759
0.0350201
0.035239
0.0351634
0.0353516
0.0353602
0.035365
0.0355596
0.0355341
0.0354834
0.0354229
0.0353516
0.0352684
0.0351728
0.0350668
0.0349511
0.0348296
0.0347006
0.0345671
0.0344247
0.0342751
0.0341144
0.033942
0.033756
0.0335532
0.0333328
0.0330893
0.0328204
0.0325183
0.0321788
0.0317894
0.0313435
0.0308186
0.0302113
0.0294767
0.0286003
0.0275219
0.0261743
0.0244895
0.0222878
0.0193228
0.0156291
0.0158475
0.0182072
0.0203007
0.0216304
0.021845
0.0210164
0.01961
0.018583
0.0179272
0.0176649
0.00191569
0.00191581
0.00191776
0.00191804
0.00191848
0.00191965
0.00192175
0.00192397
0.00192523
0.00192563
0.00192683
0.00192657
0.00193407
0.00193811
0.00194017
0.00194004
0.00194529
0.00194874
0.00195171
0.00195437
0.00195774
0.00196012
0.00196266
0.00196509
0.00196892
0.00197342
0.00197992
0.00198593
0.0019893
0.00198931
0.00199084
0.0019947
0.00200058
0.00200024
0.00199975
0.00199921
0.00199973
0.00199911
0.00199593
0.00199511
0.00199171
0.0019906
0.00198967
0.00198587
0.00198378
0.00197984
0.00197539
0.00197093
0.00196758
0.00196553
0.00196488
0.001964
0.00196339
0.00196183
0.0019593
0.00195776
0.00195469
0.00195175
0.00194888
0.00192419
0.00192453
0.00192517
0.00192604
0.00192774
0.0019288
0.00192979
0.00192992
0.00193125
0.00193184
0.00193303
0.00193723
0.00194171
0.00194386
0.00194459
0.00194603
0.00195232
0.00195522
0.00195761
0.00196026
0.00196366
0.00196635
0.00196866
0.00197161
0.00197522
0.0019797
0.00198636
0.00199242
0.00199558
0.00199575
0.00199767
0.00200125
0.00200694
0.00200763
0.00200741
0.00200699
0.00200825
0.0020079
0.00200568
0.00200445
0.00200163
0.00199991
0.00199964
0.00199788
0.00199524
0.00199294
0.00198888
0.00198461
0.00198085
0.00197746
0.00197633
0.00197593
0.001975
0.00197441
0.00197251
0.00196913
0.00196796
0.00196641
0.00196444
0.00193444
0.00193503
0.00193653
0.001937
0.00193781
0.00193827
0.00193955
0.00194068
0.00194185
0.00194341
0.00194562
0.0019488
0.00195054
0.00195183
0.00195288
0.00195682
0.00196171
0.00196401
0.00196592
0.00196897
0.00197283
0.00197543
0.0019777
0.00198096
0.00198434
0.00198904
0.00199566
0.00200189
0.00200487
0.00200533
0.00200758
0.00201088
0.00201677
0.00201742
0.00201791
0.00201864
0.00201844
0.00201974
0.00201847
0.002017
0.00201431
0.0020121
0.00201242
0.00201159
0.00200925
0.00200795
0.00200557
0.00200249
0.0019989
0.00199563
0.00199248
0.00199079
0.00199048
0.00198915
0.00198962
0.0019886
0.00198839
0.00198822
0.00198702
0.00194566
0.00194721
0.0019477
0.00194957
0.00195113
0.00195227
0.00195356
0.00195508
0.00195613
0.00195756
0.00195978
0.00196146
0.00196267
0.00196401
0.00196666
0.00197133
0.00197431
0.0019761
0.00197805
0.00198184
0.00198581
0.0019883
0.00199068
0.00199402
0.00199722
0.00200219
0.00200873
0.00201502
0.00201793
0.00201869
0.00202125
0.00202438
0.00202998
0.00203249
0.00203203
0.0020328
0.00203501
0.00203472
0.00203492
0.00203449
0.00203236
0.00202996
0.00202973
0.00203061
0.00202938
0.00202684
0.00202396
0.00202157
0.00201965
0.00201756
0.00201571
0.00201256
0.00201152
0.00201108
0.00201064
0.00200947
0.00200899
0.00200866
0.00201026
0.0019628
0.00196485
0.0019659
0.001967
0.00196761
0.00196836
0.00197006
0.00197163
0.00197316
0.00197504
0.0019763
0.00197783
0.00197908
0.00198144
0.0019849
0.00198815
0.00199014
0.0019917
0.00199425
0.00199887
0.00200233
0.00200478
0.00200733
0.00201063
0.00201377
0.0020191
0.00202562
0.00203196
0.00203492
0.00203602
0.00203888
0.00204187
0.00204763
0.0020499
0.00205205
0.0020517
0.00205283
0.00205647
0.0020563
0.00205587
0.00205476
0.00205192
0.00205211
0.00205165
0.00205152
0.00205271
0.00205178
0.0020487
0.00204455
0.00204297
0.00204305
0.00204272
0.0020406
0.00204024
0.00203907
0.00203791
0.00203927
0.00203961
0.00203862
0.00198687
0.00198805
0.0019887
0.00198994
0.00199025
0.00199047
0.00199295
0.00199409
0.00199554
0.00199693
0.00199809
0.00199959
0.00200163
0.00200438
0.00200705
0.00200929
0.00201091
0.00201275
0.00201629
0.00202088
0.002024
0.00202651
0.00202919
0.00203239
0.00203553
0.00204122
0.00204771
0.00205406
0.00205714
0.00205861
0.0020618
0.00206479
0.00207038
0.00207404
0.00207499
0.00207691
0.00207831
0.00207999
0.00208234
0.00208439
0.00208411
0.00208224
0.00208155
0.00208278
0.00208209
0.00208197
0.00208204
0.00208449
0.002084
0.00208045
0.00207803
0.0020775
0.00207556
0.00207439
0.00207483
0.00207649
0.00207737
0.00207834
0.00207873
0.00201399
0.00201348
0.00201527
0.00201581
0.002017
0.00201894
0.00202061
0.00202208
0.00202305
0.00202459
0.00202587
0.00202765
0.00202983
0.0020319
0.002034
0.00203563
0.00203735
0.00203997
0.00204427
0.00204802
0.00205093
0.00205358
0.00205631
0.00205931
0.00206265
0.00206879
0.00207534
0.00208172
0.00208503
0.00208693
0.00209052
0.00209362
0.00209918
0.00210324
0.0021066
0.00210665
0.00210869
0.00211252
0.00211356
0.00211689
0.00211873
0.00211738
0.00211756
0.00211781
0.00211862
0.00212097
0.00212071
0.00211937
0.00211981
0.00212085
0.0021233
0.00212188
0.00212139
0.00212122
0.00212058
0.00212099
0.00212143
0.00212181
0.00212205
0.00204924
0.00205081
0.00205166
0.00205297
0.00205382
0.00205332
0.00205384
0.00205623
0.00205739
0.0020592
0.00206111
0.00206308
0.00206373
0.00206647
0.00206797
0.00207
0.00207209
0.00207553
0.00207943
0.00208267
0.00208549
0.0020882
0.00209095
0.0020939
0.00209754
0.00210409
0.00211072
0.00211711
0.00212069
0.00212307
0.00212712
0.00213046
0.00213598
0.00214087
0.00214432
0.00214778
0.00214784
0.00215155
0.00215588
0.00215755
0.00216352
0.00216317
0.00216516
0.00216441
0.00216402
0.002166
0.0021698
0.00217363
0.0021742
0.00217274
0.00217381
0.00217445
0.00217699
0.00217766
0.00218151
0.00218264
0.00218215
0.00218562
0.00218617
0.00209053
0.00209082
0.00209193
0.00209182
0.00209272
0.00209523
0.00209704
0.00209886
0.0021007
0.00210271
0.00210378
0.00210454
0.00210682
0.00210861
0.0021107
0.00211298
0.00211558
0.00211883
0.00212207
0.00212492
0.00212766
0.00213035
0.00213315
0.0021363
0.00214043
0.00214746
0.00215432
0.0021608
0.00216479
0.00216775
0.00217234
0.0021761
0.00218164
0.00218708
0.00219147
0.00219549
0.00219821
0.00219994
0.00220508
0.0022091
0.00221448
0.00221767
0.00221859
0.00222379
0.00222451
0.00222426
0.00222297
0.00222469
0.0022263
0.00222771
0.00222965
0.00223168
0.00223366
0.00223601
0.00223829
0.00224042
0.0022419
0.00224374
0.00224542
0.00214755
0.00215051
0.00214946
0.00215134
0.0021497
0.00214892
0.00214829
0.00215023
0.00215324
0.00215444
0.00215678
0.00215754
0.00216044
0.00216121
0.00216412
0.00216631
0.00216968
0.00217245
0.00217559
0.00217834
0.00218113
0.00218394
0.00218692
0.00219046
0.00219516
0.00220273
0.00220972
0.00221631
0.00222078
0.00222439
0.0022296
0.00223394
0.00223972
0.00224587
0.002251
0.00225601
0.00226118
0.00226399
0.00226795
0.00227316
0.00227914
0.00228418
0.00228811
0.00229218
0.00229475
0.00230014
0.00230231
0.00230064
0.00229969
0.00230081
0.00230238
0.00230435
0.00230652
0.00230975
0.00231305
0.00231583
0.0023188
0.00232205
0.00232611
0.00223253
0.00223144
0.00222915
0.00222748
0.00222557
0.0022243
0.00222355
0.00222374
0.00222343
0.00222302
0.00222239
0.00222312
0.00222432
0.00222759
0.00223035
0.00223222
0.00223599
0.00223818
0.00224104
0.00224375
0.00224649
0.00224932
0.00225263
0.00225683
0.0022623
0.00227041
0.00227771
0.00228464
0.00228978
0.00229423
0.00230021
0.00230532
0.00231142
0.00231815
0.00232448
0.00232974
0.00233577
0.00234227
0.00234641
0.00235164
0.00235839
0.00236463
0.00236991
0.00237566
0.00238087
0.00238431
0.00239754
0.00239981
0.00240029
0.00239777
0.00239824
0.00240295
0.00240862
0.00240919
0.00241038
0.00241325
0.00241573
0.00241987
0.00242535
0.00232846
0.00232594
0.00232288
0.00232034
0.00231786
0.00231586
0.00231413
0.00231278
0.00231139
0.00231034
0.00230956
0.00230932
0.00230953
0.00231016
0.00231288
0.00231546
0.00231843
0.00232121
0.00232424
0.0023273
0.00233028
0.00233324
0.00233709
0.00234211
0.00234861
0.00235689
0.00236453
0.0023719
0.00237779
0.00238319
0.00239009
0.00239624
0.00240313
0.00241067
0.00241836
0.00242608
0.00243189
0.0024395
0.00244739
0.00245384
0.00246056
0.00246851
0.00247506
0.00248105
0.00248787
0.00249414
0.00250152
0.00251218
0.0025168
0.00252568
0.00253119
0.00253499
0.00254516
0.0025472
0.0025435
0.00254276
0.00254474
0.00254692
0.00255116
0.00244469
0.0024415
0.00243781
0.00243461
0.00243144
0.0024287
0.00242615
0.00242393
0.00242191
0.00242027
0.00241894
0.00241805
0.00241757
0.0024177
0.00241774
0.00241956
0.00242247
0.00242532
0.00242816
0.00243095
0.00243375
0.00243669
0.00244111
0.00244715
0.00245476
0.00246349
0.00247177
0.00247993
0.0024869
0.00249355