/*--------------------------------*- C++ -*----------------------------------*\
| =========                 |                                                 |
| \\      /  F ield         | OpenFOAM: The Open Source CFD Toolbox           |
|  \\    /   O peration     | Version:  2312                                  |
|   \\  /    A nd           | Website:  www.openfoam.com                      |
|    \\/     M anipulation  |                                                 |
\*---------------------------------------------------------------------------*/
FoamFile
{
    version     2.0;
    format      ascii;
    arch        "LSB;label=32;scalar=64";
    class       volScalarField;
    location    "700";
    object      nut;
}
// * * * * * * * * * * * * * * * * * * * * * * * * * * * * * * * * * * * * * //

dimensions      [0 2 -1 0 0 0 0];

internalField   nonuniform List<scalar> 
76025
(
0.00133714
0.00133852
0.00133977
0.00134068
0.00134155
0.00134401
0.00134188
0.00134089
0.00134025
0.00134071
0.00134425
0.00134815
0.00134991
0.00135461
0.0013528
0.00135066
0.00135487
0.00135636
0.00135737
0.00135719
0.00135703
0.00136323
0.00136828
0.00137527
0.00137407
0.00137396
0.00137591
0.00137627
0.0013756
0.00137947
0.00138342
0.00138436
0.00138294
0.00138892
0.00138516
0.00138868
0.00138847
0.00139184
0.00140092
0.00141772
0.00141675
0.00141365
0.00141578
0.00141812
0.0014212
0.00142495
0.00143241
0.00143958
0.00145134
0.0014618
0.00147554
0.0014871
0.00150117
0.00151527
0.00153214
0.00154949
0.00157178
0.00158896
0.00160892
0.00162061
0.00163299
0.00164275
0.00165737
0.00166509
0.00169017
0.00171243
0.00175283
0.00181706
0.0018659
0.00134609
0.00134596
0.00134706
0.00135058
0.00135434
0.00135709
0.00135625
0.00135405
0.0013535
0.00135574
0.00135603
0.00135791
0.00135913
0.00136155
0.0013653
0.00137028
0.00137192
0.00137205
0.00137322
0.00137324
0.00137601
0.00137519
0.00137907
0.00138401
0.00138712
0.00139023
0.00139113
0.00139101
0.00139948
0.00140215
0.0013965
0.00139349
0.00139602
0.00139958
0.00141153
0.0014188
0.00141339
0.0014108
0.00141361
0.00142091
0.00143201
0.00144816
0.00146895
0.00146672
0.00145825
0.00145816
0.00146283
0.00146921
0.00147942
0.0014875
0.00149849
0.00150789
0.00152036
0.00153627
0.00155043
0.00157393
0.00159222
0.00161501
0.00162882
0.00164566
0.00166204
0.00167682
0.00169622
0.00171407
0.00174235
0.00177138
0.00182766
0.00189148
0.00196045
0.00135944
0.00135761
0.00135702
0.00135657
0.00135844
0.00136195
0.00136577
0.00136534
0.00136838
0.00136991
0.00136966
0.00137433
0.00137694
0.00138011
0.00138339
0.00138693
0.00138851
0.00138928
0.00139464
0.00138949
0.00139319
0.00139425
0.0013947
0.00139767
0.00139883
0.00140231
0.00140144
0.00140216
0.0014082
0.00141642
0.00141995
0.00142442
0.00142467
0.00143683
0.0014387
0.00143135
0.00141702
0.00141649
0.0014138
0.0014145
0.00141935
0.00144254
0.00146192
0.00148085
0.00149348
0.00150424
0.00151109
0.00151907
0.00152811
0.00153269
0.00153686
0.0015406
0.00155269
0.00156881
0.0015837
0.00161114
0.00162646
0.00164607
0.00165831
0.0016876
0.00171194
0.00174137
0.00176881
0.00179268
0.00181361
0.00186162
0.00190051
0.00197934
0.00203141
0.00137512
0.00137471
0.00137383
0.00137588
0.00137678
0.00137713
0.00137489
0.00137897
0.00138248
0.00138337
0.00138184
0.00138064
0.00138124
0.00138121
0.0013866
0.00138992
0.00139365
0.00139476
0.00139888
0.00139462
0.00139126
0.00139274
0.00139206
0.00139443
0.00139751
0.00139783
0.00140479
0.00140944
0.00142207
0.00143036
0.00143695
0.00145324
0.00145755
0.00146049
0.00145052
0.00144841
0.00145137
0.00145429
0.00144798
0.00144368
0.00144658
0.00145415
0.00146595
0.00148988
0.00150984
0.00152786
0.00154839
0.00157575
0.00161553
0.00161716
0.00159406
0.0015807
0.00159114
0.00160495
0.00162053
0.00165296
0.00166132
0.00168687
0.00170659
0.00176016
0.00178774
0.00183146
0.0018539
0.0018728
0.00189008
0.00193646
0.00197899
0.00204899
0.00212489
0.0013896
0.00139043
0.00138964
0.00138944
0.00138925
0.00139188
0.00139447
0.00139522
0.00139727
0.00140103
0.0014021
0.00140335
0.00140298
0.00140653
0.00140631
0.00140628
0.00141191
0.00140882
0.00141012
0.00140767
0.00140731
0.0014063
0.00140796
0.00140934
0.00141526
0.0014238
0.00143132
0.00142635
0.00143741
0.00145318
0.00146957
0.00147324
0.00146529
0.0014582
0.00145876
0.00146019
0.00146751
0.00148312
0.00149235
0.00148928
0.00147436
0.00148587
0.00150291
0.00153352
0.0015533
0.00156322
0.00157685
0.00159903
0.00162923
0.0016242
0.00160321
0.00160186
0.00162226
0.00163781
0.00165939
0.00169259
0.00170225
0.00174034
0.00177393
0.00183978
0.00185934
0.00191134
0.00191744
0.00193544
0.00195304
0.00200889
0.00205135
0.00214304
0.00220462
0.00140925
0.00140919
0.00141309
0.00141596
0.00141597
0.00141711
0.00141477
0.00141346
0.00141419
0.00141384
0.00141926
0.00142008
0.00142058
0.00142253
0.00142248
0.00142547
0.00143194
0.0014352
0.00143785
0.00143805
0.00144019
0.00143797
0.00144258
0.00144583
0.00145405
0.00146786
0.00147006
0.00146155
0.0014636
0.00145925
0.00147138
0.00147899
0.00149723
0.00150186
0.00150153
0.00149625
0.00149438
0.00149407
0.00149549
0.0015011
0.00153707
0.00155848
0.00158322
0.00161876
0.00160408
0.00157407
0.00155654
0.00157197
0.00158266
0.00160095
0.0016215
0.00163873
0.00166825
0.00167909
0.00170456
0.00172507
0.00174643
0.00179125
0.00183073
0.00188001
0.00189333
0.00193432
0.00192987
0.00196574
0.00200999
0.00207693
0.0021448
0.00223183
0.00232392
0.00142522
0.00142401
0.00142897
0.00142774
0.00143323
0.00142849
0.00142716
0.00143133
0.00143024
0.0014406
0.00144006
0.00144413
0.0014448
0.00144552
0.00144628
0.00144731
0.00144798
0.00144624
0.00145612
0.00146291
0.00147657
0.001471
0.00146402
0.00145925
0.00145571
0.00145048
0.0014595
0.00145868
0.00147143
0.00148047
0.00149077
0.00149942
0.00151049
0.00151533
0.00152508
0.00152793
0.00153614
0.00154318
0.00155627
0.00156616
0.00158217
0.00160828
0.00162688
0.00162925
0.00162624
0.00162833
0.00163156
0.00163758
0.00164251
0.00165438
0.00166844
0.00167394
0.00170204
0.00170856
0.00173259
0.00175895
0.00179259
0.0018599
0.00189831
0.00195093
0.00195353
0.00197881
0.00199791
0.00205375
0.00211889
0.00218763
0.00226109
0.00236211
0.00244548
0.00145161
0.00145226
0.00145483
0.0014535
0.00145618
0.00145642
0.00145582
0.0014549
0.00145545
0.00146033
0.00146901
0.00146432
0.0014664
0.00146168
0.0014636
0.00146752
0.00147831
0.00147613
0.00147146
0.00147442
0.00147661
0.00148926
0.0015009
0.00151572
0.00152851
0.00152881
0.00152152
0.00151737
0.00151516
0.00151942
0.00153325
0.00155068
0.0015599
0.00156297
0.00155954
0.00155578
0.00154929
0.00155275
0.00157326
0.00159523
0.00161687
0.00163294
0.00165427
0.00168383
0.00170043
0.00171134
0.00171225
0.00171412
0.00171278
0.0017264
0.00173949
0.00173893
0.00178511
0.00178924
0.00183069
0.00186862
0.00191589
0.00200886
0.00207809
0.00209713
0.00206439
0.0020853
0.00211692
0.00216505
0.00224371
0.00229258
0.00240223
0.00248029
0.00259862
0.00146792
0.00146819
0.00147112
0.00147598
0.00148111
0.00148263
0.00149101
0.00149217
0.00148888
0.001493
0.00149856
0.0015057
0.00150581
0.00151142
0.00152889
0.00152993
0.00152353
0.00152051
0.001519
0.00152036
0.0015244
0.0015339
0.00153366
0.00155132
0.00154911
0.00152946
0.00152384
0.00153399
0.0015436
0.0015489
0.0015571
0.001572
0.00157117
0.00157637
0.00158471
0.00162814
0.0016541
0.00167394
0.00168576
0.00168592
0.0016804
0.00167522
0.00167842
0.00168468
0.00169351
0.00171149
0.00172848
0.00174729
0.00178013
0.00180864
0.00184427
0.00186629
0.00192427
0.00194684
0.0019989
0.00203532
0.00209712
0.00224268
0.00236901
0.00237239
0.0022356
0.00222409
0.00223241
0.0022883
0.00236249
0.00243188
0.00254532
0.00264577
0.00276389
0.00150293
0.00150899
0.00150765
0.00150907
0.00150772
0.00151276
0.00151997
0.0015237
0.00153273
0.00153306
0.00153393
0.00153482
0.0015209
0.00151699
0.00151128
0.00152261
0.00152091
0.0015271
0.00154547
0.00155975
0.00156856
0.00157988
0.00158392
0.00159275
0.00159691
0.0016041
0.00162724
0.00163501
0.0016189
0.00161546
0.00161269
0.00162062
0.00162818
0.00163726
0.00164682
0.00165885
0.00167252
0.00165311
0.00166243
0.00165663
0.00167326
0.00169277
0.00171908
0.00173082
0.00176036
0.00178564
0.00182108
0.00185817
0.00189645
0.00194344
0.00198768
0.00202863
0.0020354
0.00207838
0.00213898
0.00219312
0.00226931
0.00239091
0.00233881
0.00225496
0.00221892
0.00229226
0.00232416
0.00242791
0.00250043
0.00260172
0.00272897
0.00282313
0.00296769
0.00154265
0.00154729
0.00155186
0.00155141
0.00155607
0.00155427
0.00156363
0.00157015
0.00158152
0.00158977
0.00159551
0.00160292
0.00161787
0.00162082
0.00161352
0.00161619
0.0016309
0.00163083
0.00162024
0.00160922
0.00161156
0.00162209
0.00162605
0.00164413
0.00166014
0.0016665
0.00167218
0.0016634
0.00165641
0.00166153
0.00167559
0.00168813
0.0016996
0.00170771
0.0017141
0.00171594
0.00172322
0.00171808
0.00172573
0.00172558
0.00173686
0.00173988
0.00173951
0.00175757
0.00180233
0.00185811
0.00190329
0.00195578
0.0019911
0.00203573
0.00206383
0.00209553
0.00213243
0.00216582
0.00218342
0.00225901
0.00233488
0.00235077
0.0022545
0.00230953
0.00233178
0.00243773
0.00248197
0.00261067
0.00267556
0.00281557
0.00291418
0.00303911
0.00316896
0.00159238
0.00159444
0.00159432
0.00159779
0.00159031
0.00159443
0.00159799
0.00160333
0.00161769
0.00162734
0.0016311
0.00163484
0.00163798
0.00164551
0.00164869
0.00164286
0.00165326
0.00166698
0.00168214
0.00170109
0.00172808
0.00173186
0.0017204
0.00170706
0.00170754
0.0017163
0.00172636
0.0017332
0.00173598
0.00174099
0.00174512
0.00175149
0.00176572
0.00178308
0.0018003
0.00181708
0.00181816
0.00182867
0.00183469
0.00183815
0.00185624
0.00186989
0.00189618
0.00191473
0.00194515
0.00196226
0.00199539
0.00200556
0.00202745
0.00204959
0.00206373
0.00207864
0.00207314
0.00212331
0.00215241
0.00222286
0.00220478
0.00228631
0.00234001
0.00244912
0.00250238
0.0026212
0.00268191
0.00281866
0.00289098
0.00304395
0.00312215
0.00327085
0.00335991
0.00163521
0.00163855
0.00164299
0.0016501
0.00165333
0.00165355
0.00166184
0.00166905
0.00166672
0.00169134
0.00170737
0.00170974
0.00172088
0.001714
0.00171173
0.00171165
0.00171698
0.00172101
0.00173014
0.00173518
0.00174226
0.00174359
0.00176451
0.00179059
0.00180497
0.00180636
0.00181024
0.00180108
0.00180208
0.00179235
0.00179283
0.00178869
0.00179062
0.00179758
0.00180727
0.00182756
0.00182018
0.00183279
0.00182426
0.00184188
0.00190021
0.0019344
0.00197441
0.00198302
0.00200348
0.00201183
0.00203383
0.00203489
0.00204716
0.00209946
0.00211775
0.0021422
0.00206658
0.00202432
0.00208537
0.00222656
0.00235768
0.00247731
0.00254782
0.00265593
0.00272221
0.00284358
0.00291952
0.00305404
0.0031379
0.00327392
0.00335299
0.00348419
0.00353277
0.00172225
0.00173483
0.00173127
0.00172375
0.00173043
0.00174153
0.00175195
0.00175852
0.00176018
0.00176108
0.00176094
0.00175804
0.00175399
0.00173707
0.00173934
0.0017528
0.00177182
0.00177921
0.00179215
0.00179822
0.00180572
0.00181233
0.00182547
0.00183401
0.00185163
0.00185044
0.00186875
0.00187329
0.00188518
0.00187077
0.00190652
0.00195079
0.00201062
0.00203338
0.00208628
0.00209717
0.00215636
0.00216309
0.00216697
0.00216313
0.00209269
0.00203763
0.00201709
0.00201339
0.00202169
0.00203766
0.00205168
0.00207884
0.00210408
0.00214251
0.00214991
0.00218426
0.00224357
0.00235148
0.00245705
0.00255699
0.00263153
0.00272564
0.00280051
0.00290565
0.00298833
0.00310501
0.00319279
0.00331234
0.00339765
0.00350513
0.00358125
0.00366538
0.00371769
0.0018356
0.00184676
0.00186068
0.00188273
0.00188266
0.00186781
0.00185988
0.00185314
0.00185327
0.00185433
0.00185708
0.00186025
0.0018613
0.00186448
0.00186804
0.00187268
0.00187818
0.00188931
0.00188687
0.00188644
0.00191047
0.00194908
0.00197612
0.00201001
0.00202715
0.00206018
0.00206748
0.00211197
0.00211032
0.00216422
0.00216457
0.00216334
0.00209829
0.00213089
0.00206919
0.00199738
0.0020241
0.00202886
0.00205895
0.00208064
0.00209716
0.00211755
0.00214601
0.00218159
0.00221948
0.00226245
0.00230644
0.00235591
0.00240587
0.0024622
0.00252047
0.00258745
0.00264999
0.00271819
0.00278013
0.0028566
0.00292825
0.00301946
0.00310109
0.00320423
0.00329027
0.00339731
0.00347844
0.00357889
0.00364493
0.0037284
0.00377517
0.00383032
0.00386036
0.00195559
0.00196694
0.00197593
0.00198812
0.00200247
0.00200219
0.00200514
0.00203059
0.00202222
0.0019831
0.00196875
0.00197078
0.00199605
0.00200966
0.00201505
0.00202063
0.00201187
0.0020238
0.00201616
0.00202763
0.00202905
0.00205771
0.00204912
0.00207488
0.00209026
0.00212064
0.00217983
0.00223312
0.00226393
0.00228654
0.00230725
0.00231425
0.00231837
0.0023519
0.00235746
0.00234699
0.00231432
0.00225746
0.00214207
0.00212664
0.00213271
0.00216779
0.00228377
0.00237921
0.00245214
0.00251472
0.00257093
0.00262714
0.00268232
0.00274174
0.00280186
0.00286856
0.00293624
0.00301273
0.00308917
0.00317585
0.00325885
0.00335257
0.00343674
0.00353107
0.00360882
0.00369498
0.00375791
0.00382842
0.00386795
0.00392146
0.00392878
0.00397044
0.0039387
0.00209434
0.00210233
0.00210925
0.00211467
0.00212254
0.00212496
0.0021272
0.002128
0.00212519
0.00212037
0.00211812
0.00211324
0.00210477
0.00208735
0.00209851
0.00213496
0.00216222
0.00217917
0.00219235
0.00219924
0.00220977
0.00221598
0.00222737
0.00223069
0.00224492
0.00224438
0.00226085
0.00225535
0.00227048
0.00225664
0.00226891
0.00225046
0.0022587
0.00223931
0.0022518
0.00223465
0.0022405
0.00227719
0.00226163
0.00238636
0.00238299
0.00252522
0.00263436
0.0027171
0.00278531
0.00284772
0.00290789
0.00297001
0.00303366
0.00310144
0.00317106
0.0032458
0.00332142
0.00340216
0.00348109
0.00356465
0.00364183
0.00372315
0.00379177
0.00386438
0.00391757
0.00397444
0.00400727
0.00404276
0.00405249
0.00406449
0.00404948
0.0040405
0.00399129
0.00227647
0.00228343
0.00228841
0.00229388
0.00229653
0.00230109
0.00230067
0.00230408
0.00229968
0.00230363
0.00229741
0.00229854
0.00228901
0.00227577
0.00228197
0.00227867
0.00226398
0.00231142
0.00232804
0.00237418
0.00240897
0.00243007
0.00244945
0.0024636
0.00247894
0.00248803
0.00250274
0.00251294
0.00253023
0.00254404
0.00256655
0.00258707
0.00261868
0.00264797
0.00268855
0.00272903
0.00277515
0.0028258
0.00287615
0.00293245
0.00298829
0.00304695
0.00310606
0.00316574
0.00322602
0.00328806
0.00335141
0.00341757
0.00348547
0.00355643
0.00362766
0.00370042
0.00377131
0.00384262
0.00390895
0.00397458
0.00403097
0.00408637
0.00412707
0.00416799
0.00418803
0.00421059
0.00420714
0.00420851
0.00417943
0.00416004
0.00410323
0.00406154
0.00397014
0.00253225
0.00253924
0.0025449
0.00254817
0.00255041
0.00254988
0.0025491
0.00254533
0.00254246
0.00253646
0.00253371
0.00252598
0.00252508
0.00251461
0.00251966
0.00251455
0.00252489
0.00252281
0.00254446
0.00254025
0.00255323
0.00258975
0.0025772
0.00261848
0.00271997
0.0028034
0.00286835
0.00292185
0.00296836
0.0030123
0.00305477
0.00309862
0.00314302
0.00318987
0.00323736
0.00328658
0.0033363
0.00338768
0.0034407
0.00349531
0.00355115
0.00360813
0.00366595
0.00372461
0.0037837
0.00384327
0.00390264
0.00396191
0.00401996
0.0040777
0.00413333
0.00418789
0.00423758
0.00428393
0.00432292
0.00435785
0.00438226
0.00440296
0.0044091
0.00441365
0.0043976
0.00438419
0.00434338
0.00430932
0.00424013
0.00418822
0.00408189
0.00400881
0.00385821
0.00293326
0.00294867
0.00296304
0.00297499
0.0029855
0.00299304
0.00299987
0.00300394
0.00300871
0.00301123
0.00301644
0.00301987
0.00302854
0.00303554
0.00305117
0.00306568
0.00309071
0.00311391
0.00314759
0.0031803
0.00322149
0.00326939
0.00331882
0.00337514
0.00343546
0.0034951
0.00355209
0.0036064
0.00365836
0.00370884
0.00375829
0.00380736
0.00385621
0.0039051
0.00395398
0.00400285
0.00405162
0.00410023
0.00414852
0.00419634
0.00424345
0.00428965
0.00433467
0.00437831
0.00442016
0.00446004
0.00449738
0.00453206
0.00456334
0.00459117
0.0046149
0.00463542
0.00465093
0.00466291
0.00466686
0.00466551
0.00465419
0.00463822
0.00460987
0.00457788
0.00452706
0.0044782
0.00439966
0.00432793
0.00421699
0.00412462
0.00396119
0.00384791
0.00362223
0.0035401
0.00356946
0.00359868
0.00362732
0.00365547
0.00368237
0.00370855
0.00373343
0.00375806
0.00378205
0.00380692
0.00383243
0.00386017
0.00389003
0.00392283
0.00395901
0.00399782
0.00404092
0.00408591
0.00413501
0.00418347
0.00423272
0.00428156
0.0043283
0.00437544
0.00442252
0.00446873
0.00451364
0.00455701
0.0045988
0.00463901
0.00467766
0.00471475
0.00475029
0.00478421
0.00481645
0.00484691
0.0048755
0.00490205
0.0049264
0.00494836
0.00496776
0.0049844
0.00499807
0.00500853
0.00501562
0.00501902
0.0050187
0.00501421
0.00500562
0.00499223
0.00497449
0.00495206
0.00492648
0.0048954
0.00485896
0.00481456
0.00476509
0.00470727
0.00463881
0.00455743
0.00447188
0.00435281
0.00423801
0.0040764
0.00392786
0.00369695
0.00353187
0.003223
0.00451478
0.0045559
0.0045961
0.00463535
0.00467347
0.00471034
0.00474583
0.00478004
0.00481289
0.00484475
0.00487561
0.00490615
0.00493625
0.00496677
0.0049972
0.00502842
0.00505984
0.00509193
0.00512386
0.00515582
0.00518751
0.00521882
0.00524951
0.00527928
0.00530798
0.00533541
0.00536134
0.00538557
0.0054079
0.0054282
0.00544636
0.00546231
0.00547598
0.0054873
0.00549618
0.00550251
0.0055062
0.00550711
0.00550516
0.00550015
0.00549188
0.0054803
0.00546525
0.00544646
0.00542391
0.00539755
0.00536725
0.00533331
0.00529512
0.00525285
0.00520575
0.00515459
0.00509762
0.00503975
0.0049754
0.00490872
0.00483814
0.00476109
0.00467964
0.00456661
0.00446459
0.00432952
0.00416682
0.00398399
0.00375692
0.00352669
0.00324001
0.00304076
0.00269714
0.00542094
0.00545051
0.00547986
0.00550896
0.00553763
0.00556574
0.00559315
0.00561977
0.00564549
0.00567025
0.00569402
0.00571683
0.0057387
0.00575971
0.00577989
0.0057993
0.00581794
0.00583579
0.00585277
0.00586883
0.0058839
0.00589792
0.00591074
0.00592228
0.00593231
0.00594073
0.00594726
0.00595177
0.00595396
0.0059537
0.00595095
0.0059457
0.00593793
0.00592754
0.00591442
0.00589847
0.00587955
0.00585739
0.00583229
0.00580316
0.00577009
0.0057337
0.0056931
0.00564757
0.0055984
0.00554539
0.00548865
0.00542892
0.0053639
0.00529427
0.00521886
0.00514018
0.0050519
0.00497205
0.00487649
0.00478982
0.00470436
0.00460299
0.00448738
0.00430597
0.00415507
0.00391702
0.00369219
0.00342139
0.00318176
0.00285714
0.00266275
0.00227145
0.00185708
0.00588336
0.00590525
0.00592638
0.00594681
0.00596649
0.00598539
0.00600349
0.00602076
0.00603712
0.00605249
0.00606676
0.00607988
0.00609178
0.00610238
0.00611168
0.00611964
0.00612623
0.00613128
0.00613494
0.00613729
0.00613843
0.00613855
0.00613732
0.00613557
0.0061323
0.00612863
0.00612274
0.006116
0.00610595
0.00609266
0.00607647
0.00605773
0.00603631
0.00601192
0.00598451
0.00595438
0.00592068
0.00588348
0.00584446
0.00579576
0.00574493
0.00569352
0.00563305
0.00556375
0.00549714
0.00542577
0.00535141
0.00527424
0.00518599
0.00509188
0.0049907
0.00488754
0.00476278
0.00470281
0.00457251
0.00443866
0.00427732
0.00408459
0.00386555
0.00361552
0.00337894
0.00311365
0.00287615
0.00259997
0.00237766
0.00205968
0.00193544
0.00158876
0.00142682
0.00588278
0.00589496
0.00590594
0.00591584
0.00592479
0.005933
0.0059406
0.00594744
0.00595371
0.00595912
0.00596326
0.0059669
0.00596918
0.00596966
0.00596879
0.00596572
0.00596045
0.0059512
0.00594038
0.00592758
0.00591445
0.00590161
0.00588731
0.0058787
0.00586702
0.00586474
0.00585479
0.00586668
0.00585817
0.00584204
0.00582165
0.00579902
0.00577192
0.00573807
0.00570085
0.00566415
0.00561901
0.00557252
0.00551987
0.00542881
0.00537061
0.00530924
0.00520558
0.00508766
0.00501884
0.00492261
0.00481915
0.00471345
0.00459422
0.00446634
0.00433239
0.00418973
0.00403832
0.00387971
0.00370834
0.00352556
0.00334025
0.00312473
0.00292682
0.00267219
0.00248532
0.00223962
0.00201072
0.00181811
0.00168811
0.00146095
0.00145356
0.00148036
0.0018142
0.00539906
0.00539572
0.00539132
0.00538609
0.00538136
0.0053774
0.00537446
0.00537017
0.00536862
0.005366
0.00536023
0.00536648
0.00536355
0.00535601
0.00534869
0.00533238
0.00530708
0.00525962
0.00521987
0.00516042
0.00511889
0.00507685
0.00503995
0.00502786
0.00500563
0.00497135
0.00493602
0.00488407
0.00483706
0.00476554
0.00471475
0.00468709
0.00464366
0.00456626
0.00451071
0.00448512
0.0044005
0.00435821
0.00430718
0.00424072
0.00417728
0.00409523
0.00397136
0.00388509
0.00384267
0.0037823
0.00370317
0.00360754
0.00349858
0.00337943
0.00325437
0.00312012
0.00298087
0.00283043
0.00266876
0.00250398
0.00233625
0.00211318
0.00197064
0.00173799
0.00164491
0.00146714
0.00135164
0.00132874
0.00127464
0.00140638
0.00166684
0.0020457
0.00240087
0.00421213
0.00419892
0.00418058
0.00415414
0.00414386
0.00411872
0.00410847
0.00409045
0.00406971
0.00405132
0.00402168
0.00399854
0.00397672
0.00395671
0.00395023
0.00393526
0.00391654
0.00387634
0.00385174
0.00381651
0.00378018
0.00374631
0.00369908
0.0036591
0.00362275
0.00360219
0.00355431
0.00352482
0.00348568
0.00342769
0.00338822
0.00333553
0.00328915
0.00326213
0.00321272
0.00317015
0.00309622
0.00306194
0.00301627
0.00297614
0.00290977
0.00284495
0.00277775
0.0027105
0.00264076
0.00256442
0.00247932
0.00238444
0.00228187
0.0021685
0.0020558
0.00193203
0.00182004
0.0016939
0.00161333
0.00148831
0.00137976
0.00123786
0.00115825
0.00115472
0.00117412
0.00117943
0.00122688
0.00133525
0.00154534
0.00178355
0.00208628
0.00245593
0.00270503
0.0022603
0.00225025
0.00223576
0.00221604
0.0022074
0.002188
0.0021791
0.0021657
0.00214451
0.00212788
0.00211922
0.00210649
0.00208329
0.00206548
0.00205826
0.00203646
0.00202682
0.00200289
0.00199161
0.00196671
0.00195423
0.00192925
0.00191509
0.00188796
0.00187279
0.00184539
0.00181901
0.00179264
0.00176593
0.00173897
0.0017119
0.00168457
0.0016566
0.00162637
0.00159171
0.00156705
0.00151865
0.00149467
0.00143517
0.00141054
0.00134064
0.0013089
0.00125177
0.0012047
0.00115904
0.00111297
0.00106594
0.00101687
0.00097854
0.000932172
0.000915194
0.000863076
0.000870419
0.000830622
0.000815956
0.000832155
0.000850916
0.000910702
0.000961985
0.00120612
0.00133843
0.00129338
0.00135813
0.00151365
0.00175099
0.00188923
0.00187964
0.00196585
0.00204917
0.000416421
0.000413873
0.000414782
0.000413618
0.000413457
0.000418468
0.000422387
0.000421514
0.000424948
0.000422106
0.000422011
0.000427193
0.000425137
0.000425513
0.000431683
0.000429562
0.000434533
0.000432129
0.000432258
0.000436967
0.000436655
0.00044245
0.000439479
0.000438999
0.000443109
0.000444264
0.000445191
0.000446011
0.000446797
0.000447538
0.000448196
0.000448771
0.000449243
0.00044966
0.000449999
0.000450298
0.000450524
0.000450692
0.000450771
0.000450749
0.000450604
0.000450306
0.000449839
0.000449158
0.000448239
0.000447011
0.00044543
0.000443366
0.000440811
0.000437376
0.000433227
0.000427554
0.000420538
0.000411069
0.000398076
0.000380877
0.000356141
0.000318946
0.000269659
0.000356843
0.00045267
0.000435585
0.000413205
0.000393112
0.000364954
0.000345317
0.000341165
0.000335725
0.000330115
0.0013151
0.00131378
0.00131416
0.00131261
0.00131034
0.00130942
0.0013094
0.00130969
0.00130769
0.0013043
0.00130368
0.0013009
0.00130539
0.00130407
0.00130185
0.00129927
0.00130194
0.00130356
0.00130537
0.00130683
0.00130858
0.00131132
0.0013123
0.00131307
0.0013146
0.00131617
0.00131953
0.0013247
0.00132836
0.00132787
0.00132609
0.00132615
0.0013266
0.00132867
0.00133125
0.00133139
0.00133132
0.00133278
0.00133187
0.00133251
0.0013306
0.00133184
0.00133149
0.00133232
0.00133402
0.00133492
0.00133164
0.00133095
0.0013327
0.00133431
0.00133756
0.00133694
0.00133733
0.00133721
0.00133748
0.0013371
0.00133573
0.00133496
0.00133629
0.00131752
0.00131638
0.00131583
0.0013155
0.00131615
0.00131581
0.00131506
0.00131271
0.001311
0.00130871
0.00130765
0.00130873
0.00130832
0.00130757
0.00130562
0.0013055
0.00130937
0.00131055
0.00131188
0.00131316
0.00131515
0.00131801
0.00131853
0.00131949
0.00132094
0.00132265
0.00132604
0.00133122
0.00133446
0.00133422
0.00133281
0.00133275
0.00133292
0.00133485
0.00133714
0.0013383
0.00133967
0.00134008
0.0013401
0.00134
0.00134034
0.00133851
0.0013395
0.00133978
0.0013406
0.00134356
0.00134192
0.00134049
0.00133914
0.00134001
0.0013436
0.00134681
0.00134753
0.00134872
0.0013484
0.00134595
0.00134652
0.00134668
0.00134651
0.00132419
0.00132287
0.00132321
0.00132128
0.00132071
0.00131925
0.0013192
0.00131828
0.0013168
0.00131583
0.00131514
0.00131445
0.00131351
0.00131333
0.00131268
0.00131536
0.00131714
0.0013183
0.00131942
0.00132098
0.00132388
0.00132602
0.00132615
0.00132711
0.00132831
0.00133008
0.0013335
0.0013386
0.00134161
0.00134147
0.00134047
0.00134026
0.00134032
0.00134145
0.00134462
0.0013465
0.00134582
0.00134784
0.00134836
0.00134803
0.00134719
0.00134751
0.0013478
0.00134753
0.00134663
0.00134954
0.00135062
0.00135118
0.00135001
0.00134935
0.00134916
0.00135172
0.00135604
0.00135719
0.00136126
0.0013615
0.00136138
0.00136144
0.00136169
0.00132823
0.00132775
0.00132567
0.0013261
0.00132634
0.00132603
0.00132582
0.00132533
0.00132392
0.00132289
0.00132251
0.00132197
0.00132193
0.00132216
0.00132312
0.00132529
0.00132633
0.00132726
0.00132851
0.00133055
0.00133332
0.00133488
0.00133494
0.00133569
0.00133689
0.00133897
0.00134229
0.00134718
0.00134996
0.00134996
0.00134932
0.00134913
0.00134892
0.00135145
0.00135238
0.00135475
0.00135782
0.00135687
0.00135774
0.00135868
0.00135819
0.00135874
0.00135988
0.00136062
0.00136013
0.00135968
0.00135852
0.00135861
0.00135983
0.00136042
0.00136134
0.00136052
0.00136311
0.00136616
0.00136912
0.00137154
0.00137202
0.00137166
0.00137418
0.00133118
0.0013318
0.00133125
0.00133107
0.00132991
0.00132941
0.00132985
0.00133051
0.00133072
0.0013311
0.00133099
0.00133147
0.00133178
0.00133281
0.00133431
0.00133569
0.00133644
0.00133732
0.0013389
0.00134125
0.00134337
0.0013446
0.00134475
0.00134542
0.00134674
0.00134907
0.00135244
0.00135713
0.00135976
0.00135997
0.00135963
0.00135936
0.00135967
0.00136
0.00136391
0.00136511
0.00136656
0.00136945
0.00137048
0.00136979
0.00136938
0.0013693
0.00137187
0.0013712
0.0013714
0.00137531
0.00137719
0.00137473
0.00137097
0.00137154
0.00137447
0.00137656
0.00137614
0.00137848
0.0013795
0.00138085
0.00138526
0.00138976
0.00138796
0.00134451
0.0013461
0.00134575
0.00134444
0.00134329
0.00134179
0.00134349
0.0013428
0.00134277
0.00134319
0.00134328
0.00134406
0.00134508
0.00134628
0.00134718
0.00134828
0.00134898
0.00135007
0.00135176
0.00135395
0.00135556
0.00135659
0.00135675
0.0013574
0.00135877
0.00136126
0.00136462
0.00136904
0.00137153
0.00137195
0.00137186
0.00137167
0.00137155
0.00137367
0.00137411
0.00137762
0.00138028
0.00138104
0.00138172
0.00138563
0.00138545
0.00138442
0.00138583
0.00138743
0.00138632
0.0013866
0.00138895
0.00139632
0.00139748
0.0013927
0.00139139
0.00139376
0.00139441
0.00139541
0.00139914
0.00140409
0.00140793
0.00140829
0.00140859
0.00135587
0.00135402
0.00135479
0.00135487
0.00135459
0.00135558
0.00135679
0.00135858
0.00135766
0.0013582
0.00135833
0.00135918
0.00136022
0.00136094
0.0013619
0.00136266
0.00136354
0.00136456
0.00136622
0.00136783
0.00136913
0.00137014
0.00137035
0.00137105
0.00137262
0.00137538
0.00137879
0.00138299
0.00138544
0.00138612
0.00138631
0.0013862
0.00138635
0.00138669
0.00139081
0.00139139
0.00139243
0.00139784
0.00139723
0.00139929
0.00140067
0.00140062
0.00140344
0.00140487
0.00140468
0.00140758
0.00140538
0.00140478
0.00140849
0.00140962
0.00141351
0.00141238
0.00141256
0.00141302
0.00141306
0.00141618
0.00141969
0.00142453
0.00142521
0.00137469
0.00137597
0.00137477
0.00137611
0.00137597
0.0013748
0.0013735
0.00137625
0.00137613
0.00137637
0.00137709
0.00137819
0.0013772
0.00137913
0.00137958
0.00138066
0.00138116
0.00138222
0.00138362
0.00138488
0.00138591
0.00138673
0.00138719
0.00138807
0.00138973
0.00139265
0.00139599
0.00139992
0.00140233
0.00140324
0.00140367
0.00140368
0.00140382
0.00140498
0.00140611
0.00141127
0.00141113
0.00141359
0.00141841
0.0014174
0.00142306
0.00141935
0.00142319
0.0014255
0.00142624
0.00142831
0.0014324
0.00143541
0.00143348
0.00143162
0.00143458
0.00143389
0.00143676
0.00143773
0.00144242
0.00144435
0.00144393
0.00144914
0.0014503
0.00139299
0.00139152
0.00139321
0.00139246
0.00139243
0.00139382
0.00139582
0.00139777
0.00139777
0.00139867
0.00139799
0.00139661
0.00139785
0.00139865
0.00139938
0.00140037
0.001401
0.00140188
0.00140297
0.00140396
0.00140484
0.00140562
0.00140639
0.00140754
0.00140947
0.00141256
0.00141606
0.0014198
0.0014223
0.00142352
0.00142425
0.00142448
0.00142464
0.00142563
0.0014277
0.00143181
0.00143362
0.00143411
0.00143808
0.00144218
0.00144452
0.00144728
0.00144747
0.00145334
0.00145201
0.00145125
0.00144679
0.00144996
0.00145141
0.001451
0.00145272
0.00145193
0.00145586
0.00145881
0.00146037
0.00146219
0.00146215
0.0014616
0.00146433
0.0014208
0.0014244
0.00142159
0.00142454
0.00142203
0.00142037
0.00141763
0.00141935
0.00142047
0.00142151
0.00142171
0.00142152
0.00142234
0.00142193
0.00142363
0.00142389
0.0014255
0.00142575
0.00142726
0.00142799
0.00142891
0.00142978
0.00143075
0.0014321
0.00143413
0.00143736
0.00144078
0.00144425
0.00144682
0.00144828
0.00144928
0.00144977
0.00145013
0.00145141
0.00145313
0.00145582
0.00146274
0.00146263
0.00146481
0.00146792
0.00147268
0.00147045
0.00147608
0.00148103
0.00148264
0.00148783
0.00148798
0.00148241
0.00147997
0.00147928
0.00148011
0.00147856
0.0014767
0.00148354
0.0014861
0.00149055
0.00149284
0.0014946
0.00149692
0.00147951
0.00147616
0.00147244
0.00146953
0.001465
0.00146258
0.0014581
0.00145692
0.00145526
0.00145165
0.00144986
0.00144826
0.00144913
0.00145091
0.00145275
0.00145151
0.00145413
0.0014534
0.00145477
0.00145547
0.00145637
0.00145728
0.00145854
0.00146026
0.00146257
0.00146608
0.00146957
0.00147302
0.00147584
0.00147771
0.00147905
0.00147984
0.0014803
0.00148168
0.00148362
0.00148484
0.00148985
0.00149673
0.00149791
0.00150025
0.00150634
0.00150654
0.00150539
0.00150956
0.00151456
0.00151789
0.00153271
0.00153173
0.00152839
0.00152257
0.00151971
0.00152363
0.00152595
0.00152203
0.00152594
0.00152624
0.00153035
0.00153498
0.00153858
0.00151857
0.00151372
0.00150766
0.0015027
0.00150073
0.00149806
0.00149591
0.0014943
0.00149246
0.00149117
0.00149073
0.00148905
0.00148705