/*--------------------------------*- C++ -*----------------------------------*\
| =========                 |                                                 |
| \\      /  F ield         | OpenFOAM: The Open Source CFD Toolbox           |
|  \\    /   O peration     | Version:  2312                                  |
|   \\  /    A nd           | Website:  www.openfoam.com                      |
|    \\/     M anipulation  |                                                 |
\*---------------------------------------------------------------------------*/
FoamFile
{
    version     2.0;
    format      ascii;
    arch        "LSB;label=32;scalar=64";
    class       volScalarField;
    location    "700";
    object      p;
}
// * * * * * * * * * * * * * * * * * * * * * * * * * * * * * * * * * * * * * //

dimensions      [0 2 -2 0 0 0 0];

internalField   nonuniform List<scalar> 
76025
(
-0.0447939
-0.0512662
-0.0578769
-0.0645264
-0.0711065
-0.0777825
-0.0846516
-0.0912769
-0.0980638
-0.10472
-0.111413
-0.118123
-0.124861
-0.13155
-0.138298
-0.144974
-0.151498
-0.158026
-0.164549
-0.170896
-0.177117
-0.183382
-0.189489
-0.195418
-0.201249
-0.206884
-0.212615
-0.218208
-0.223354
-0.228638
-0.233445
-0.238046
-0.242792
-0.247332
-0.251617
-0.255547
-0.259083
-0.262818
-0.26626
-0.2695
-0.272329
-0.274918
-0.277756
-0.280268
-0.282481
-0.284262
-0.286051
-0.287764
-0.288951
-0.290011
-0.291017
-0.291716
-0.292405
-0.293177
-0.293798
-0.293739
-0.294161
-0.294175
-0.294241
-0.294296
-0.294174
-0.294159
-0.294441
-0.294784
-0.294994
-0.29497
-0.29545
-0.296737
-0.298062
-0.0483544
-0.0552058
-0.062103
-0.0690651
-0.076064
-0.0831084
-0.0901448
-0.0971866
-0.104258
-0.111324
-0.118406
-0.125478
-0.132538
-0.139571
-0.146537
-0.153431
-0.160315
-0.167096
-0.173865
-0.180484
-0.187064
-0.193512
-0.199842
-0.206031
-0.212127
-0.218115
-0.223975
-0.229589
-0.234998
-0.240249
-0.245311
-0.250318
-0.255136
-0.259655
-0.263982
-0.268047
-0.271918
-0.275596
-0.279052
-0.282331
-0.285314
-0.2881
-0.290714
-0.293055
-0.295169
-0.297047
-0.29877
-0.300292
-0.301564
-0.302691
-0.303689
-0.304495
-0.305205
-0.305841
-0.306312
-0.306589
-0.306924
-0.307133
-0.307256
-0.307341
-0.307521
-0.307828
-0.308132
-0.308544
-0.309022
-0.309605
-0.310462
-0.311789
-0.313029
-0.0522078
-0.0593931
-0.0666373
-0.0739636
-0.0813357
-0.0887019
-0.0960771
-0.10348
-0.1109
-0.118335
-0.125763
-0.133169
-0.140544
-0.147875
-0.155144
-0.162371
-0.169541
-0.176643
-0.183664
-0.190597
-0.197425
-0.204129
-0.210713
-0.217172
-0.223502
-0.229687
-0.235682
-0.241485
-0.247109
-0.252547
-0.25783
-0.262934
-0.267792
-0.27241
-0.276811
-0.280986
-0.284926
-0.288629
-0.292117
-0.295377
-0.298381
-0.301142
-0.303689
-0.306031
-0.30816
-0.310066
-0.311762
-0.31326
-0.314555
-0.315664
-0.316616
-0.317415
-0.318091
-0.318671
-0.319149
-0.319517
-0.319838
-0.320115
-0.320352
-0.320607
-0.320933
-0.321356
-0.321865
-0.322523
-0.323335
-0.324318
-0.325515
-0.327178
-0.328681
-0.0562758
-0.0638238
-0.0714404
-0.0791397
-0.0868742
-0.0946141
-0.102365
-0.110135
-0.117916
-0.125698
-0.133467
-0.141211
-0.148923
-0.156593
-0.164212
-0.171774
-0.179268
-0.186682
-0.194006
-0.201229
-0.208337
-0.215322
-0.222175
-0.228885
-0.235439
-0.241826
-0.248034
-0.254056
-0.259885
-0.265513
-0.270937
-0.276143
-0.281116
-0.285856
-0.290361
-0.294625
-0.298641
-0.30241
-0.305935
-0.309211
-0.312232
-0.315006
-0.317553
-0.31988
-0.321978
-0.323846
-0.325493
-0.326934
-0.328175
-0.329233
-0.330134
-0.330895
-0.331537
-0.332082
-0.332542
-0.332928
-0.333272
-0.333598
-0.333924
-0.33429
-0.334745
-0.335324
-0.336043
-0.33694
-0.338036
-0.339375
-0.340956
-0.343011
-0.344889
-0.0607295
-0.0686669
-0.0766736
-0.084766
-0.092893
-0.101027
-0.109169
-0.117325
-0.125488
-0.133648
-0.141792
-0.149909
-0.15799
-0.166024
-0.174002
-0.181912
-0.189745
-0.197489
-0.205132
-0.212664
-0.220073
-0.227347
-0.234474
-0.241442
-0.248241
-0.254861
-0.261292
-0.267523
-0.273543
-0.279344
-0.28492
-0.290262
-0.295362
-0.300213
-0.30481
-0.309148
-0.313224
-0.317036
-0.320582
-0.323861
-0.326873
-0.329623
-0.332127
-0.334393
-0.336425
-0.338225
-0.339803
-0.341172
-0.342345
-0.343337
-0.344172
-0.344869
-0.345453
-0.345945
-0.346367
-0.346739
-0.347087
-0.347437
-0.347821
-0.348281
-0.348861
-0.349596
-0.350514
-0.351651
-0.353032
-0.354718
-0.356698
-0.359214
-0.361672
-0.0656566
-0.0740093
-0.082432
-0.0909433
-0.099489
-0.108038
-0.116593
-0.12516
-0.133731
-0.142296
-0.150841
-0.159353
-0.167823
-0.17624
-0.184592
-0.192868
-0.201057
-0.209148
-0.217126
-0.22498
-0.232697
-0.240266
-0.247675
-0.254912
-0.261967
-0.268827
-0.275481
-0.281917
-0.288126
-0.2941
-0.299828
-0.305305
-0.31052
-0.315468
-0.320141
-0.324537
-0.328653
-0.332485
-0.336036
-0.339303
-0.342289
-0.344999
-0.347446
-0.349643
-0.351595
-0.353308
-0.354792
-0.356064
-0.357138
-0.358032
-0.358769
-0.359375
-0.359874
-0.360292
-0.360653
-0.360984
-0.361309
-0.361663
-0.362086
-0.362621
-0.36331
-0.36419
-0.365294
-0.366657
-0.368314
-0.370335
-0.37271
-0.375702
-0.378728
-0.0710902
-0.079884
-0.0887493
-0.097706
-0.106697
-0.115688
-0.124681
-0.133682
-0.142685
-0.151677
-0.160644
-0.169573
-0.178453
-0.187272
-0.196018
-0.204679
-0.213242
-0.221696
-0.230026
-0.238218
-0.24626
-0.254139
-0.261843
-0.269357
-0.276671
-0.283775
-0.290655
-0.297299
-0.303699
-0.309843
-0.315723
-0.321328
-0.326652
-0.331689
-0.336431
-0.340876
-0.345021
-0.348864
-0.352405
-0.355646
-0.35859
-0.361242
-0.363614
-0.365717
-0.367561
-0.369154
-0.370512
-0.371651
-0.37259
-0.373351
-0.373961
-0.374446
-0.374829
-0.375142
-0.375415
-0.375672
-0.375949
-0.376284
-0.376719
-0.377303
-0.378076
-0.379076
-0.380341
-0.381913
-0.383839
-0.386184
-0.388947
-0.39239
-0.395863
-0.0770931
-0.0863549
-0.0956898
-0.105119
-0.114581
-0.124039
-0.133497
-0.14296
-0.152422
-0.161868
-0.171283
-0.180653
-0.189966
-0.199209
-0.20837
-0.217436
-0.226394
-0.235229
-0.243928
-0.252477
-0.260861
-0.269066
-0.277077
-0.284882
-0.292469
-0.299824
-0.306935
-0.313791
-0.320381
-0.326695
-0.332722
-0.338452
-0.34388
-0.348996
-0.353794
-0.358272
-0.362427
-0.366259
-0.369767
-0.372956
-0.375829
-0.378393
-0.38066
-0.382642
-0.384353
-0.385803
-0.387007
-0.387983
-0.388754
-0.389346
-0.389788
-0.390109
-0.390338
-0.39051
-0.390656
-0.390806
-0.390999
-0.391282
-0.391699
-0.392302
-0.393127
-0.394221
-0.395624
-0.397391
-0.399572
-0.402235
-0.405384
-0.409251
-0.413179
-0.0837409
-0.0935009
-0.103335
-0.113267
-0.123231
-0.133187
-0.14314
-0.153095
-0.163044
-0.172971
-0.182862
-0.1927
-0.202472
-0.212167
-0.22177
-0.231267
-0.240642
-0.24988
-0.258966
-0.267885
-0.276625
-0.285169
-0.293502
-0.30161
-0.30948
-0.317095
-0.324443
-0.331514
-0.338295
-0.344774
-0.350943
-0.356792
-0.36231
-0.367493
-0.372333
-0.376825
-0.380971
-0.384771
-0.388226
-0.391338
-0.394111
-0.396552
-0.398676
-0.4005
-0.402037
-0.4033
-0.404305
-0.405072
-0.40563
-0.406006
-0.406232
-0.406341
-0.406377
-0.406366
-0.406343
-0.406348
-0.406424
-0.406624
-0.406998
-0.407589
-0.408435
-0.409589
-0.411104
-0.413042
-0.415458
-0.418434
-0.421983
-0.426327
-0.430899
-0.0911153
-0.101408
-0.111776
-0.122244
-0.132742
-0.14323
-0.153712
-0.164191
-0.174659
-0.1851
-0.195496
-0.205832
-0.216094
-0.226267
-0.236337
-0.246289
-0.256104
-0.265768
-0.275265
-0.284579
-0.293693
-0.302592
-0.311259
-0.319679
-0.327835
-0.335715
-0.343306
-0.350594
-0.357567
-0.36421
-0.370514
-0.376469
-0.382067
-0.387301
-0.392166
-0.396659
-0.400778
-0.404524
-0.407898
-0.410902
-0.41354
-0.415819
-0.417758
-0.419373
-0.420682
-0.421699
-0.422447
-0.422951
-0.423242
-0.423351
-0.423314
-0.423168
-0.422954
-0.42271
-0.422475
-0.422295
-0.422216
-0.422298
-0.422584
-0.423115
-0.423939
-0.425118
-0.426714
-0.428793
-0.431423
-0.434695
-0.43864
-0.443552
-0.448941
-0.0993263
-0.110188
-0.121123
-0.13216
-0.143228
-0.154284
-0.165327
-0.176363
-0.187384
-0.198372
-0.209308
-0.220174
-0.230955
-0.241636
-0.252202
-0.262636
-0.272918
-0.283034
-0.292965
-0.302693
-0.3122
-0.32147
-0.330487
-0.339233
-0.347692
-0.355849
-0.363689
-0.371198
-0.378361
-0.385167
-0.391603
-0.39766
-0.403328
-0.4086
-0.41347
-0.417937
-0.421998
-0.425653
-0.428906
-0.431758
-0.434213
-0.43628
-0.437977
-0.439325
-0.440348
-0.441067
-0.441505
-0.441694
-0.441663
-0.441448
-0.441091
-0.440634
-0.440118
-0.439589
-0.439092
-0.438674
-0.438389
-0.438287
-0.438416
-0.438827
-0.439583
-0.440749
-0.44239
-0.44458
-0.447389
-0.450921
-0.455207
-0.460619
-0.466574
-0.108484
-0.119951
-0.131492
-0.143138
-0.154812
-0.16647
-0.178112
-0.189742
-0.201353
-0.212924
-0.224435
-0.235866
-0.247203
-0.258428
-0.269524
-0.28047
-0.291249
-0.301842
-0.312231
-0.322396
-0.332321
-0.341983
-0.351363
-0.360446
-0.369216
-0.377657
-0.38575
-0.39348
-0.400834
-0.407797
-0.414358
-0.420505
-0.426229
-0.431522
-0.436379
-0.440794
-0.444769
-0.448302
-0.451398
-0.454057
-0.456281
-0.458084
-0.459484
-0.460509
-0.461188
-0.461547
-0.461615
-0.461423
-0.461003
-0.460395
-0.459645
-0.458802
-0.457918
-0.457035
-0.456199
-0.455466
-0.454891
-0.45453
-0.45444
-0.454684
-0.455325
-0.456431
-0.458073
-0.460328
-0.463275
-0.467019
-0.471589
-0.477325
-0.483311
-0.118715
-0.130831
-0.14302
-0.155318
-0.167643
-0.179943
-0.192222
-0.204484
-0.21672
-0.228911
-0.241033
-0.253068
-0.264996
-0.2768
-0.288458
-0.299949
-0.311255
-0.322357
-0.333235
-0.343866
-0.354232
-0.36431
-0.374079
-0.383522
-0.392621
-0.401358
-0.409712
-0.417668
-0.425211
-0.432326
-0.438997
-0.445213
-0.450967
-0.456251
-0.46106
-0.465388
-0.469236
-0.472602
-0.47549
-0.477906
-0.479854
-0.481347
-0.482407
-0.483063
-0.483343
-0.483279
-0.482902
-0.482247
-0.481355
-0.480274
-0.479054
-0.477742
-0.476385
-0.47504
-0.473764
-0.472624
-0.471679
-0.470993
-0.470626
-0.470642
-0.471108
-0.472096
-0.473681
-0.475947
-0.47898
-0.482885
-0.487717
-0.493762
-0.500277
-0.130198
-0.143006
-0.155887
-0.168879
-0.181896
-0.194885
-0.207848
-0.22079
-0.2337
-0.246556
-0.259333
-0.272009
-0.284563
-0.296976
-0.309228
-0.321297
-0.333164
-0.344805
-0.356199
-0.367323
-0.378154
-0.38867
-0.39885
-0.408673
-0.418116
-0.427157
-0.435777
-0.443959
-0.451685
-0.45894
-0.465712
-0.471989
-0.47776
-0.48302
-0.487764
-0.491985
-0.49568
-0.498845
-0.501488
-0.503612
-0.505224
-0.506337
-0.506975
-0.507171
-0.506957
-0.50637
-0.505444
-0.504223
-0.502754
-0.501092
-0.499286
-0.497389
-0.495456
-0.493556
-0.491759
-0.490135
-0.488748
-0.48766
-0.486936
-0.486645
-0.486859
-0.487655
-0.489114
-0.491324
-0.494375
-0.498374
-0.503387
-0.509721
-0.516768
-0.143128
-0.156681
-0.170306
-0.184045
-0.197808
-0.211539
-0.225236
-0.238905
-0.252536
-0.266104
-0.279582
-0.292943
-0.306166
-0.319232
-0.332118
-0.344804
-0.357265
-0.369477
-0.381417
-0.393061
-0.404382
-0.415358
-0.425966
-0.436183
-0.445982
-0.455341
-0.464238
-0.472653
-0.480565
-0.487962
-0.494827
-0.501151
-0.50692
-0.512126
-0.516763
-0.520827
-0.524315
-0.527226
-0.529567
-0.531335
-0.532532
-0.533173
-0.53329
-0.53292
-0.532103
-0.53088
-0.529295
-0.527397
-0.525238
-0.522875
-0.520366
-0.517774
-0.51517
-0.512626
-0.510213
-0.508004
-0.506066
-0.504472
-0.503292
-0.502601
-0.502476
-0.502997
-0.50425
-0.506323
-0.509311
-0.513317
-0.518415
-0.5248
-0.532189
-0.15767
-0.172028
-0.186458
-0.201003
-0.215568
-0.230093
-0.244575
-0.259023
-0.273424
-0.287751
-0.301974
-0.316071
-0.330017
-0.343792
-0.357363
-0.370709
-0.383803
-0.396621
-0.409136
-0.421323
-0.433157
-0.444615
-0.45567
-0.466296
-0.476467
-0.486158
-0.495346
-0.504009
-0.512124
-0.519673
-0.526637
-0.532999
-0.53875
-0.543873
-0.548362
-0.552213
-0.555424
-0.557997
-0.559936
-0.561239
-0.56191
-0.561973
-0.561463
-0.560423
-0.558896
-0.556928
-0.554569
-0.551872
-0.548896
-0.545707
-0.542373
-0.538967
-0.535563
-0.53224
-0.529077
-0.526153
-0.523546
-0.521334
-0.519592
-0.5184
-0.517837
-0.517986
-0.518933
-0.52077
-0.523597
-0.527522
-0.532624
-0.539043
-0.546332
-0.174091
-0.189309
-0.204596
-0.220005
-0.235435
-0.250815
-0.266146
-0.281435
-0.296663
-0.311803
-0.326827
-0.341712
-0.356432
-0.37096
-0.385267
-0.399327
-0.413111
-0.426589
-0.439731
-0.452507
-0.464894
-0.476863
-0.488388
-0.499442
-0.509997
-0.520028
-0.529511
-0.538419
-0.54673
-0.554417
-0.561461
-0.567843
-0.573545
-0.578554
-0.582856
-0.586442
-0.589309
-0.591461
-0.592899
-0.59363
-0.59367
-0.593048
-0.591801
-0.589973
-0.587609
-0.584759
-0.581478
-0.577826
-0.573873
-0.569694
-0.565367
-0.560977
-0.556608
-0.55235
-0.548289
-0.544512
-0.541104
-0.538148
-0.535724
-0.533912
-0.532793
-0.532448
-0.532966
-0.534443
-0.536983
-0.540713
-0.545748
-0.552328
-0.560235
-0.192742
-0.208878
-0.225083
-0.241415
-0.257763
-0.274058
-0.290296
-0.306481
-0.322599
-0.338619
-0.354508
-0.370238
-0.385782
-0.401113
-0.416204
-0.431028
-0.445551
-0.459742
-0.473571
-0.487005
-0.500012
-0.512559
-0.524615
-0.536147
-0.547124
-0.557516
-0.5673
-0.576448
-0.584934
-0.592732
-0.599818
-0.606169
-0.611765
-0.616591
-0.620633
-0.623882
-0.626333
-0.62799
-0.628854
-0.628932
-0.628247
-0.626825
-0.624706
-0.621936
-0.618567
-0.614655
-0.610263
-0.605463
-0.600334
-0.594963
-0.589444
-0.583871
-0.578345
-0.572965
-0.567827
-0.563027
-0.558656
-0.554801
-0.551545
-0.548967
-0.547146
-0.546163
-0.546105
-0.547068
-0.549161
-0.552524
-0.557302
-0.563778
-0.571894
-0.214078
-0.231208
-0.248405
-0.265733
-0.283073
-0.300351
-0.317563
-0.334715
-0.35179
-0.368754
-0.385574
-0.402215
-0.418648
-0.434843
-0.450772
-0.466402
-0.481703
-0.496643
-0.511189
-0.525306
-0.538958
-0.552106
-0.564717
-0.576753
-0.58818
-0.598968
-0.609083
-0.618494
-0.62717
-0.635083
-0.642203
-0.648508
-0.653974
-0.658584
-0.662321
-0.665175
-0.667141
-0.668219
-0.668408
-0.667715
-0.666158
-0.663771
-0.660597
-0.65669
-0.652107
-0.646914
-0.641183
-0.634999
-0.628454
-0.62165
-0.614694
-0.607699
-0.600779
-0.594047
-0.587613
-0.581582
-0.576052
-0.571114
-0.566851
-0.56334
-0.560657
-0.558876
-0.558077
-0.558354
-0.559812
-0.562593
-0.56685
-0.572863
-0.580633
-0.238591
-0.256802
-0.275081
-0.293496
-0.311922
-0.330276
-0.348556
-0.366764
-0.384883
-0.402875
-0.420704
-0.438336
-0.455737
-0.472875
-0.489717
-0.506228
-0.522374
-0.538116
-0.553419
-0.568247
-0.582562
-0.596329
-0.609508
-0.622064
-0.633959
-0.645156
-0.655615
-0.665297
-0.674165
-0.682186
-0.689327
-0.69556
-0.700859
-0.705201
-0.708568
-0.710946
-0.712326
-0.712706
-0.712082
-0.710461
-0.707864
-0.704328
-0.6999
-0.694638
-0.688607
-0.68188
-0.674544
-0.666694
-0.65844
-0.649902
-0.641206
-0.632486
-0.623875
-0.615507
-0.607509
-0.599999
-0.593083
-0.586855
-0.581396
-0.576777
-0.573065
-0.570322
-0.568619
-0.568035
-0.568667
-0.570646
-0.574114
-0.579311
-0.586248
-0.267055
-0.28644
-0.305892
-0.325491
-0.345098
-0.364625
-0.384066
-0.403423
-0.422674
-0.44178
-0.460701
-0.479402
-0.497847
-0.516002
-0.53383
-0.551295
-0.568356
-0.584975
-0.601112
-0.616727
-0.631779
-0.646227
-0.660029
-0.673143
-0.685527
-0.69714
-0.707939
-0.717879
-0.726922
-0.735025
-0.742154
-0.748272
-0.753348
-0.757354
-0.760267
-0.762069
-0.762745
-0.762288
-0.760691
-0.757962
-0.754122
-0.749209
-0.743275
-0.736381
-0.728599
-0.720014
-0.710724
-0.700843
-0.690502
-0.679845
-0.669023
-0.658196
-0.647528
-0.637177
-0.627294
-0.618016
-0.609462
-0.601725
-0.594883
-0.588992
-0.5841
-0.58025
-0.577493
-0.575893
-0.575535
-0.576538
-0.579037
-0.583236
-0.589094
-0.300137
-0.320769
-0.341466
-0.36232
-0.383179
-0.403952
-0.424629
-0.44521
-0.465669
-0.485965
-0.506055
-0.525902
-0.545467
-0.564713
-0.583602
-0.602091
-0.620141
-0.637707
-0.654746
-0.671214
-0.687064
-0.70225
-0.716725
-0.730441
-0.743351
-0.755409
-0.766565
-0.776774
-0.785987
-0.794161
-0.80125
-0.807215
-0.812016
-0.815618
-0.817992
-0.819111
-0.818957
-0.817514
-0.814772
-0.810736
-0.805427
-0.798885
-0.79116
-0.78232
-0.772444
-0.761627
-0.749982
-0.737645
-0.724771
-0.711536
-0.698125
-0.684737
-0.67157
-0.658823
-0.64668
-0.635307
-0.624837
-0.615369
-0.60697
-0.599673
-0.593491
-0.588434
-0.584525
-0.581803
-0.580347
-0.58028
-0.581762
-0.585024
-0.59017
-0.338368
-0.36032
-0.382339
-0.404522
-0.426711
-0.448808
-0.470803
-0.49269
-0.514442
-0.536015
-0.557365
-0.578449
-0.599227
-0.619659
-0.639703
-0.659314
-0.678446
-0.697051
-0.715082
-0.732488
-0.749219
-0.765223
-0.780448
-0.794839
-0.808343
-0.820907
-0.832476
-0.842996
-0.852415
-0.86068
-0.867739
-0.873541
-0.878041
-0.881195
-0.882962
-0.883309
-0.882206
-0.879625
-0.875547
-0.869975
-0.862928
-0.854438
-0.84456
-0.833368
-0.820947
-0.807405
-0.792873
-0.777514
-0.761525
-0.745119
-0.728529
-0.712004
-0.695799
-0.680164
-0.665332
-0.651503
-0.638834
-0.627428
-0.617331
-0.608539
-0.601018
-0.594726
-0.589648
-0.585807
-0.583283
-0.582169
-0.582621
-0.584814
-0.589256
-0.380011
-0.403386
-0.426806
-0.450411
-0.47403
-0.497553
-0.520967
-0.544264
-0.567415
-0.590374
-0.613096
-0.635529
-0.65763
-0.679358
-0.700668
-0.721511
-0.741836
-0.761591
-0.780721
-0.79917
-0.816884
-0.833803
-0.849867
-0.865016
-0.879188
-0.892325
-0.904364
-0.915242
-0.924906
-0.933292
-0.940334
-0.945972
-0.950153
-0.952822
-0.953925
-0.953418
-0.95126
-0.94741
-0.94184
-0.93456
-0.925587
-0.914933
-0.902656
-0.888834
-0.873547
-0.856907
-0.839064
-0.820216
-0.8006
-0.780471
-0.760116
-0.739861
-0.720042
-0.700985
-0.682992
-0.666318
-0.651153
-0.637603
-0.625695
-0.615376
-0.606536
-0.599066
-0.59294
-0.588192
-0.584879
-0.582927
-0.582265
-0.582563
-0.584633
-0.429027
-0.453903
-0.478908
-0.504105
-0.529321
-0.554444
-0.579455
-0.604345
-0.629084
-0.653622
-0.677901
-0.701872
-0.72549
-0.748709
-0.771476
-0.79374
-0.815447
-0.836545
-0.856971
-0.876664
-0.895557
-0.913585
-0.930682
-0.94678
-0.961816
-0.975721
-0.988417
-0.999841
-1.00992
-1.01859
-1.02577
-1.03138
-1.03536
-1.03766
-1.03818
-1.03687
-1.03366
-1.02849
-1.02131
-1.01209
-1.00082
-0.98753
-0.972267
-0.955093
-0.936096
-0.915417
-0.893235
-0.869772
-0.84531
-0.820186
-0.794782
-0.769525
-0.744878
-0.721311
-0.69926
-0.679101
-0.661089
-0.645339
-0.631812
-0.620314
-0.610531
-0.602206
-0.595299
-0.589885
-0.585999
-0.5833
-0.581356
-0.579419
-0.579197
-0.47421
-0.500944
-0.527569
-0.554385
-0.581227
-0.607959
-0.634561
-0.661027
-0.687323
-0.713399
-0.7392
-0.764678
-0.789783
-0.81446
-0.83865
-0.862297
-0.885341
-0.907717
-0.929356
-0.950196
-0.970168
-0.9892
-1.00722
-1.02416
-1.03995
-1.0545
-1.06775
-1.07961
-1.08999
-1.09882
-1.10601
-1.11148
-1.11516
-1.11695
-1.11679
-1.11456
-1.1102
-1.10362
-1.09479
-1.08366
-1.07024
-1.05455
-1.03661
-1.01645
-0.994147
-0.969824
-0.943663
-0.915889
-0.886804
-0.856813
-0.826398
-0.796104
-0.766546
-0.73839
-0.712309
-0.688914
-0.668616
-0.651554
-0.637537
-0.625997
-0.616039
-0.606998
-0.598837
-0.591972
-0.586757
-0.582938
-0.580141
-0.577761
-0.577202
-0.545993
-0.574338
-0.603147
-0.632141
-0.661151
-0.690081
-0.718907
-0.747615
-0.77617
-0.804516
-0.832598
-0.860356
-0.887735
-0.914674
-0.941112
-0.966982
-0.992211
-1.01673
-1.04046
-1.06334
-1.08529
-1.10623
-1.12609
-1.14478
-1.1622
-1.17828
-1.19293
-1.20606
-1.21757
-1.22737
-1.23537
-1.24148
-1.24561
-1.24766
-1.24751
-1.24498
-1.2399
-1.23205
-1.22131
-1.2076
-1.19094
-1.17136
-1.14889
-1.12358
-1.09548
-1.0647
-1.03142
-0.995875
-0.958434
-0.919573
-0.879893
-0.840133
-0.801165
-0.763991
-0.729719
-0.699479
-0.674195
-0.654355
-0.639782
-0.629225
-0.620416
-0.611619
-0.602835
-0.595216
-0.589654
-0.585844
-0.583418
-0.582239
-0.582942
-0.572485
-0.602925
-0.632781
-0.663017
-0.693416
-0.723709
-0.753847
-0.783844
-0.813675
-0.843282
-0.872604
-0.901575
-0.930137
-0.958234
-0.985804
-1.01278
-1.03908
-1.06463
-1.08937
-1.1132
-1.13605
-1.15783
-1.17846
-1.19784
-1.2159
-1.23254
-1.24765
-1.26111
-1.2728
-1.28264
-1.29052
-1.29636
-1.3001
-1.30173
-1.3012
-1.29838
-1.29307
-1.28505
-1.27407
-1.2599
-1.24242
-1.2216
-1.19742
-1.16981
-1.13876
-1.10429
-1.06648
-1.0255
-0.981649
-0.935397
-0.887451
-0.838811
-0.790809
-0.745137
-0.703793
-0.668869
-0.642214
-0.624947
-0.616699
-0.614823
-0.615052
-0.614063
-0.61122
-0.607761
-0.604684
-0.601553
-0.59789
-0.59457
-0.593507
-0.701732
-0.73531
-0.769808
-0.804378
-0.83873
-0.872875
-0.906873
-0.940743
-0.974458
-1.00796
-1.04118
-1.07404
-1.10647
-1.13839
-1.16975
-1.20047
-1.23047
-1.25967
-1.28798
-1.3153
-1.34155
-1.36663
-1.39045
-1.41289
-1.43384
-1.4532
-1.47083
-1.48661
-1.50041
-1.51208
-1.52145
-1.52834
-1.53253
-1.53372
-1.53169
-1.52636
-1.51774
-1.50589
-1.49088
-1.47265
-1.45089
-1.42522
-1.39525
-1.36072
-1.32145
-1.27734
-1.22841
-1.17487
-1.11709
-1.05577
-0.991913
-0.926988
-0.862922
-0.802078
-0.747086
-0.700555
-0.664648
-0.640471
-0.627414
-0.622817
-0.622647
-0.62329
-0.622722
-0.620736
-0.617669
-0.61364
-0.608683
-0.604054
-0.603471
0.114981
0.1179
0.121013
0.12433
0.127831
0.131556
0.135523
0.139626
0.14387
0.14827
0.152858
0.157603
0.162362
0.167498
0.172214
0.176988
0.181299
0.185822
0.189936
0.193829
0.19761
0.200388
0.202779
0.204348
0.20527
0.205501
0.204632
0.202916
0.200423
0.197
0.192216
0.186683
0.180406
0.173471
0.165381
0.156755
0.147687
0.138089
0.128078
0.117948
0.10755
0.0970143
0.0867757
0.0767408
0.0663799
0.056641
0.0468508
0.0376392
0.0286735
0.0200955
0.0119639
0.00422122
-0.00306439
-0.00991343
-0.0163688
-0.022708
-0.0285029
-0.0339851
-0.0390977
0.116721
0.11981
0.123128
0.126635
0.13035
0.134283
0.138432
0.142765
0.14728
0.151981
0.156836
0.161818
0.166885
0.172049
0.177238
0.182246
0.187161
0.191901
0.1964
0.200489
0.204255
0.207452
0.210004
0.211834
0.212896
0.213108
0.212415
0.210666
0.208135
0.204524
0.199663
0.193998
0.187531
0.180118
0.171835
0.162863
0.153358
0.143359
0.13296
0.122277
0.111414
0.100505
0.0897171
0.0789009
0.068286
0.0579193
0.0478326
0.0381526
0.028802
0.0198212
0.0112788
0.00317073
-0.0045527
-0.0118358
-0.0187679
-0.0252632
-0.0313401
-0.0370224
-0.0423464
0.118523
0.121803
0.125303
0.129021
0.132962
0.137128
0.141511
0.146103
0.150899
0.155888
0.161036
0.166303
0.171667
0.177106
0.182567
0.18799
0.193316
0.198417
0.203211
0.207611
0.211561
0.215031
0.217823
0.219856
0.221072
0.221358
0.22071
0.219012
0.216366
0.212633
0.207703
0.201846
0.195028
0.18727
0.178652
0.169318
0.159361
0.148909
0.138041
0.12688
0.115526
0.104058
0.0926195
0.0813119
0.0701998
0.0593625
0.0488224
0.0386309
0.0288125
0.0193916
0.0104094
0.00186105
-0.00625496
-0.0139464
-0.0211776
-0.0279591
-0.0343252
-0.0402895
-0.0458902
0.120162
0.123635
0.127345
0.131289
0.135472
0.139892
0.144547
0.149427
0.154524
0.159822
0.165296
0.170912
0.176642
0.182441
0.188243
0.194019
0.199674
0.205124
0.210264
0.215025
0.219304
0.223021
0.226045
0.228279
0.229657
0.230063
0.229471
0.22779
0.225054
0.221205
0.216138
0.210042
0.202902
0.194816
0.185821
0.176065
0.165644
0.154682
0.143282
0.131578
0.119667
0.107647
0.0956532
0.0838117
0.0721553
0.0607717
0.0497033
0.038994
0.0286844
0.0188005
0.00936889
0.000400289
-0.00809793
-0.0161315
-0.0237001
-0.0308177
-0.0375039
-0.043772
-0.0496474
0.121684
0.125364
0.129298
0.133481
0.137916
0.142606
0.147546
0.152729
0.158145
0.163776
0.169599
0.175583
0.181691
0.187871
0.194063
0.200209
0.20623
0.212047
0.217562
0.222686
0.227308
0.231313
0.234589
0.237042
0.238591
0.23913
0.238614
0.236941
0.234135
0.230161
0.22492
0.218576
0.211133
0.202692
0.193295
0.183082
0.172167
0.160672
0.148713
0.136426
0.123931
0.111342
0.0987768
0.0863416
0.0741013
0.0621348
0.0505042
0.0392576
0.0284352
0.0180655
0.00817053
-0.00123694
-0.0101526
-0.0185794
-0.0265259
-0.034002
-0.041022
-0.047601
-0.0537649
0.123128
0.127032
0.131205
0.13564
0.140345
0.145319
0.150561
0.156064
0.161816
0.167799
0.173988
0.180351
0.18685
0.193431
0.200035
0.206593
0.213024
0.219242
0.225148
0.230642
0.235608
0.239929
0.243488
0.246181
0.247916
0.248592
0.248156
0.246497
0.243628
0.239524
0.234102
0.227504
0.219745
0.210921
0.201095
0.190399
0.17896
0.166905
0.154363
0.14147
0.128358
0.115149
0.101956
0.0888842
0.0760208
0.063444
0.0512201
0.0394013
0.0280296
0.0171362
0.00674208
-0.00314139
-0.012511
-0.0213685
-0.0297203
-0.0375762
-0.044951
-0.0518614
-0.0583336
0.124454
0.128598
0.133026
0.137735
0.14273
0.148012
0.153579
0.159424
0.165535
0.171894
0.178475
0.185245
0.192161
0.199171
0.206212
0.21321
0.220079
0.226727
0.23305
0.238937
0.244271
0.24893
0.252791
0.255742
0.257678
0.258499
0.258145
0.256506
0.253577
0.24934
0.243728
0.236863
0.228766
0.219534
0.209249
0.198041
0.186044
0.173394
0.160229
0.146692
0.132917
0.119034
0.105163
0.0914159
0.0778885
0.0646625
0.0518067
0.039376
0.0274144
0.0159561
0.00502304
-0.00537271
-0.0152265
-0.0245395
-0.0333186
-0.0415752
-0.0493252
-0.0565865
-0.0633859
0.12562
0.130019
0.134721
0.139722
0.145028
0.15064
0.156557
0.162771
0.16927
0.176034
0.183038
0.190246
0.197613
0.205084
0.212592
0.220059
0.227397
0.234506
0.241276
0.247588
0.253319
0.25834
0.262523
0.265748
0.267902
0.268878
0.268611
0.266993
0.264005
0.259629
0.253812
0.246659
0.238202
0.228537
0.217762
0.206008
0.193414
0.180127
0.166292
0.15206
0.137573
0.122968
0.108374
0.0939091
0.0796732
0.0657533
0.0522224
0.0391392
0.0265496
0.0144884
0.00297949
-0.0079626
-0.0183318
-0.0281298
-0.0373643
-0.0460478
-0.0541979
-0.0618335
-0.0689827
0.126592
0.131263
0.136256
0.141568
0.147206
0.153171
0.159462
0.166072
0.172988
0.180189
0.187647
0.195326
0.203178
0.211144
0.219155
0.227128
0.234968
0.242572
0.249822
0.256592
0.26275
0.268161
0.27269
0.276209
0.278596
0.279741
0.279568
0.277972
0.274923
0.270399
0.26436
0.256897
0.248055
0.237929
0.226629
0.214289
0.201057
0.187087
0.172535
0.157557
0.142309
0.126934
0.111568
0.0963354
0.0813425
0.066682
0.0524307
0.0386511
0.0253923
0.0126904
0.00057022
-0.0109528
-0.0218725
-0.0321901
-0.0419137
-0.0510566
-0.0596369
-0.0676744
-0.0751976
0.127324
0.132287
0.137594
0.143241
0.149236
0.15558
0.162273
0.169307
0.176669
0.184337
0.192283
0.200466
0.208837
0.217335
0.225885
0.234401
0.242783
0.250918
0.258683
0.265945
0.272563
0.278394
0.283295
0.28713
0.289769
0.291096
0.291025
0.289454
0.28634
0.281658
0.27538
0.267585
0.25833
0.247712
0.235848
0.222881
0.208965
0.194263
0.178944
0.163172
0.14711
0.130912
0.11472
0.098664
0.0828596
0.0674053
0.052383
0.0378582
0.0238825
0.0104948
-0.00227848
-0.0144216
-0.0259282
-0.0368003
-0.0470464
-0.0566801
-0.06572
-0.0741866
-0.0821089
0.127777
0.133054
0.138698
0.144705
0.151083
0.157834
0.164957
0.172446
0.180285
0.188454
0.19692
0.205644
0.214572
0.22364
0.23277
0.241869
0.25083
0.259536
0.267855
0.275644
0.282757
0.289039
0.294341
0.298517
0.301429
0.302951
0.302991
0.301446
0.298265
0.293416
0.286879
0.27873
0.269032
0.257886
0.245419
0.23178
0.217131
0.201646
0.185504
0.16888
0.151947
0.134867
0.117791
0.100855
0.0841818
0.067875
0.0520228
0.0366965
0.0219507
0.00782682
-0.00564753
-0.0184565
-0.0305931
-0.0420596
-0.0528646
-0.0630224
-0.0725523
-0.0814761
-0.0898252
0.127897
0.133512
0.139517
0.14591
0.152697
0.159884
0.167468
0.175443
0.183795
0.1925
0.201527
0.210831
0.220358
0.230038
0.239789
0.249513
0.259098
0.268416
0.277329
0.285686
0.29333
0.300099
0.305832
0.310375
0.31358
0.315314
0.315473
0.313957
0.310703
0.305676
0.298862
0.290334
0.28016
0.26845
0.255335
0.240974
0.22554
0.209216
0.192191
0.174652
0.156782
0.138755
0.120729
0.102851
0.0852477
0.0680297
0.0512898
0.0351039
0.0195316
0.00461648
-0.00961166
-0.0231358
-0.0359489
-0.0480532
-0.0594572
-0.0701764
-0.0802315
-0.0896464
-0.0984537
0.127611
0.133587
0.139979
0.146784
0.154012
0.161666
0.169746
0.178245
0.187147
0.196429
0.206058
0.215986
0.226156
0.236495
0.246914
0.257311
0.267565
0.277542
0.287094
0.296061
0.304276
0.311567
0.317765
0.322702
0.326223
0.328184
0.328473
0.326988
0.323657
0.318439
0.311327
0.302391
0.291708
0.279391
0.265581
0.250445
0.234167
0.216941
0.198968
0.180446
0.161569
0.142523
0.123475
0.104581
0.0859785
0.0677833
0.0500935
0.0329875
0.0165292
0.000765625
-0.0142714
-0.028563
-0.0421021
-0.0548899
-0.0669367
-0.0782589
-0.0888778
-0.0988198
-0.108119
0.126829
0.133192
0.14
0.147249
0.154951
0.163108
0.171721
0.180783
0.190278
0.200182
0.210458
0.221058
0.23192
0.242968
0.254107
0.265227
0.276202
0.286887
0.297126
0.306749
0.315579
0.323434
0.330131
0.335493
0.339353
0.341559
0.341987
0.340534
0.33712
0.331697
0.324264
0.31489
0.30366
0.29069
0.276132
0.260163
0.242976
0.224779
0.205785
0.186206
0.166248
0.146106
0.125959
0.105971
0.0862911
0.0670411
0.048326
0.0302298
0.012819
-0.00385668
-0.0197638
-0.034881
-0.0492002
-0.0627243
-0.075464
-0.0874351
-0.0986609
-0.10917
-0.118995
0.12545
0.13223
0.139485
0.147212
0.155423
0.164122
0.17331
0.182978
0.193112
0.203684
0.214658
0.225983
0.237591
0.249402
0.261316
0.273215
0.284965
0.296413
0.307392
0.317723
0.327215
0.335675
0.342909
0.348729
0.352954
0.355423
0.356002
0.354582
0.351078
0.345434
0.337654
0.327808
0.315986
0.302314
0.28695
0.270082
0.251918
0.232677
0.212583
0.191864
0.170739
0.149416
0.128088
0.106927
0.0860883
0.0657028
0.0458819
0.0267163
0.00827804
-0.00938124
-0.026225
-0.0422314
-0.0573934
-0.0717126
-0.0851985
-0.0978703
-0.109752
-0.120873
-0.131271
0.123358
0.130587
0.138322
0.146564
0.155323
0.164605
0.174411
0.184733
0.195554
0.206848
0.218574
0.230678
0.24309
0.255724
0.268472
0.281211
0.293797
0.306068
0.317845
0.328937
0.339143
0.348256
0.35607
0.362381
0.366999
0.36975
0.370491
0.369106
0.365503
0.35962
0.351464
0.341108
0.328649
0.314219
0.297985
0.280147
0.260927
0.240559
0.219281
0.197333
0.174949
0.15235
0.129745
0.107318
0.085232
0.0636263
0.0426181
0.022304
0.00276038
-0.0159564
-0.0338077
-0.0507713
-0.0668378
-0.0820087
-0.0962965
-0.109721
-0.122308
-0.134091
-0.145107
0.120399
0.12811
0.136363
0.145159
0.154509
0.16442
0.174893
0.185919
0.197483
0.209554
0.222092
0.235038
0.248318
0.261839
0.275489
0.289134
0.302622
0.31578
0.328418
0.340331
0.351306
0.361122
0.369558
0.376399
0.381439
0.384494
0.385407
0.38406
0.380348
0.374204
0.36564
0.354732
0.341583
0.326333
0.30916
0.290275
0.269914
0.248327
0.225771
0.202497
0.178756
0.154783
0.130795
0.106997
0.0835611
0.0606365
0.0383474
0.0167968
-0.00393622
-0.0237917
-0.0427289
-0.0607234
-0.0777648
-0.0938559
-0.109009
-0.123246
-0.136594
-0.149089
-0.160769
0.116406
0.124635
0.133446
0.142838
0.152824