/*--------------------------------*- C++ -*----------------------------------*\
| =========                 |                                                 |
| \\      /  F ield         | OpenFOAM: The Open Source CFD Toolbox           |
|  \\    /   O peration     | Version:  2312                                  |
|   \\  /    A nd           | Website:  www.openfoam.com                      |
|    \\/     M anipulation  |                                                 |
\*---------------------------------------------------------------------------*/
FoamFile
{
    version     2.0;
    format      ascii;
    arch        "LSB;label=32;scalar=64";
    class       surfaceScalarField;
    location    "700";
    object      phi;
}
// * * * * * * * * * * * * * * * * * * * * * * * * * * * * * * * * * * * * * //

dimensions      [0 3 -1 0 0 0 0];

oriented        oriented;

internalField   nonuniform List<scalar> 
116611
(
0.0320266
0.0113955
-0.0316178
-0.0118043
0.0324316
0.0113113
-0.0117163
0.0328313
0.0112196
-0.0116193
0.0332254
0.0111195
-0.0115136
0.0336148
0.011011
-0.0114004
0.0340044
0.0108928
-0.0112824
0.0343815
0.0107662
-0.0111433
0.0347611
0.0106313
-0.0110109
0.0351297
0.0104862
-0.0108548
0.0354952
0.010332
-0.0106975
0.0358523
0.0101663
-0.0105235
0.0362043
0.00999051
-0.0103425
0.0365483
0.00980388
-0.0101479
0.0368853
0.00960559
-0.00994266
0.037214
0.00939644
-0.00972512
0.0375316
0.00917635
-0.00949394
0.0378423
0.00894183
-0.00925254
0.0381437
0.00869842
-0.00899979
0.0384323
0.00843775
-0.00872637
0.0387115
0.00816853
-0.00844769
0.0389831
0.00788178
-0.00815339
0.0392423
0.00758368
-0.00784287
0.0394887
0.00727048
-0.00751695
0.039725
0.00694419
-0.00718048
0.0399476
0.00660281
-0.00682536
0.0401621
0.0062466
-0.00646111
0.040362
0.00587266
-0.00607257
0.0405419
0.00548461
-0.00566449
0.0407162
0.00508134
-0.00525561
0.0408647
0.00466197
-0.0048105
0.0410086
0.00423047
-0.00437439
0.0411403
0.00377611
-0.00390777
0.0412532
0.00330436
-0.00341732
0.041351
0.00281821
-0.00291594
0.0414297
0.0023111
-0.00238979
0.0414893
0.00178946
-0.00184906
0.0415412
0.00124848
-0.00130047
0.0415741
0.000691155
-0.000724011
0.0415929
0.000115527
-0.000134282
0.0415869
-0.000483511
0.000489454
0.0415635
-0.0010959
0.00111934
0.0415327
-0.00172701
0.0017578
0.0414811
-0.00237736
0.00242894
0.0414089
-0.00304663
0.00311886
0.041314
-0.00373553
0.00383044
0.0412062
-0.00444066
0.00454844
0.0410846
-0.00516451
0.00528608
0.040934
-0.0059099
0.00606047
0.0407685
-0.00667163
0.00683723
0.0405849
-0.00745068
0.00763425
0.0403792
-0.00824798
0.00845366
0.040161
-0.00905929
0.00927751
0.0399279
-0.00988779
0.0101208
0.0396735
-0.0107356
0.0109901
0.0393894
-0.0115997
0.0118838
0.0390997
-0.0124737
0.0127634
0.0387828
-0.013366
0.013683
0.0384528
-0.0142701
0.0146
0.0381038
-0.015184
0.0155329
0.0377364
-0.0161046
0.0164721
0.0373661
-0.017032
0.0174023
0.036982
-0.0179763
0.0183604
0.0365798
-0.0189256
0.0193277
0.0361668
-0.0198796
0.0202926
0.035741
-0.0208346
0.0212604
0.0353076
-0.0217899
0.0222233
0.0348837
-0.0227407
0.0231646
0.0344672
-0.0236868
0.0241033
-0.0246921
0.0340273
0.0251319
0.0316805
0.0109885
-0.0312735
0.0320838
0.010908
0.0324832
0.0108202
0.0328782
0.0107246
0.0332691
0.0106201
0.0336542
0.0105076
0.034034
0.0103864
0.0344092
0.0102561
0.0347784
0.0101169
0.0351427
0.0099678
0.0355002
0.00980878
0.0358511
0.00963961
0.0361952
0.00945983
0.0365316
0.00926919
0.0368597
0.00906832
0.0371804
0.0088556
0.0374908
0.00863147
0.037794
0.00839518
0.038085
0.00814678
0.0383682
0.00788532
0.0386394
0.00761061
0.0389002
0.00732288
0.0391492
0.00702148
0.0393871
0.00670625
0.0396132
0.0063767
0.039828
0.00603188
0.0400281
0.0056725
0.0402147
0.00529802
0.0403879
0.0049081
0.0405464
0.00450353
0.0406945
0.00408235
0.040827
0.00364361
0.0409427
0.00318861
0.0410442
0.00271671
0.0411281
0.0022272
0.0411973
0.00172028
0.0412502
0.00119564
0.0412873
0.000654016
0.0413093
9.35507e-05
0.0413116
-0.000485809
0.041298
-0.00108231
0.0412672
-0.00169628
0.0412181
-0.00232826
0.0411511
-0.00297959
0.0410654
-0.00364983
0.0409628
-0.00433804
0.0408423
-0.00504399
0.0407016
-0.00576927
0.040543
-0.00651302
0.0403662
-0.00727385
0.0401701
-0.00805191
0.0399572
-0.00884637
0.0397267
-0.00965729
0.0394766
-0.0104855
0.0392073
-0.0113303
0.0389227
-0.0121892
0.0386189
-0.0130622
0.0382978
-0.013949
0.0379606
-0.0148468
0.0376111
-0.0157551
0.0372522
-0.0166731
0.0368783
-0.0176025
0.0364926
-0.0185398
0.0360962
-0.0194832
0.0356917
-0.0204301
0.0352803
-0.0213785
0.0348664
-0.0223268
0.0344507
-0.023271
-0.0242554
0.034014
0.0313574
0.0105849
-0.0309539
0.0317582
0.0105072
0.0321559
0.0104225
0.03255
0.0103304
0.0329395
0.0102306
0.0333244
0.0101227
0.0337044
0.0100065
0.0340789
0.00988156
0.0344481
0.00974769
0.0348114
0.00960454
0.0351683
0.00945188
0.0355185
0.00928939
0.0358616
0.00911677
0.036197
0.00893374
0.0365252
0.00874015
0.0368452
0.0085356
0.0371568
0.00831985
0.0374595
0.0080925
0.037753
0.00785327
0.0380366
0.00760169
0.0383097
0.00733755
0.0385721
0.00706047
0.0388234
0.00677014
0.0390634
0.00646623
0.0392917
0.00614842
0.0395073
0.00581634
0.03971
0.00546973
0.0398997
0.00510832
0.0400759
0.00473194
0.0402392
0.00434027
0.0403887
0.00393279
0.0405231
0.00350918
0.0406427
0.00306906
0.0407472
0.0026122
0.040836
0.00213837
0.040909
0.00164733
0.0409657
0.00113896
0.0410067
0.000612973
0.0410315
6.8741e-05
0.0410389
-0.000493195
0.0410291
-0.00107246
0.0410021
-0.00166929
0.0409582
-0.00228435
0.0408968
-0.00291827
0.0408177
-0.00357068
0.0407207
-0.00424107
0.0406059
-0.00492919
0.0404724
-0.00563579
0.0403203
-0.00636084
0.0401498
-0.00710339
0.0399611
-0.00786318
0.0397547
-0.00864
0.039531
-0.00943364
0.0392898
-0.0102443
0.0390307
-0.0110712
0.0387548
-0.0119132
0.0384623
-0.0127698
0.038154
-0.0136406
0.0378316
-0.0145243
0.0374964
-0.0154199
0.0371499
-0.0163266
0.0367912
-0.0172439
0.0364216
-0.0181702
0.0360418
-0.0191034
0.0356536
-0.0200419
0.0352593
-0.0209841
0.0348618
-0.0219293
0.0344623
-0.0228716
-0.0238508
0.0340577
0.0310568
0.0101833
-0.0306552
0.0314553
0.0101087
0.0318506
0.0100272
0.0322425
0.00993856
0.0326305
0.0098426
0.0330142
0.00973897
0.0333933
0.00962741
0.0337673
0.0095076
0.0341358
0.00937921
0.0344984
0.00924194
0.0348547
0.00909551
0.0352045
0.00893964
0.0355472
0.00877403
0.0358826
0.00859839
0.0362103
0.00841243
0.03653
0.00821591
0.0368414
0.00800848
0.037144
0.00778987
0.0374375
0.00755973
0.0377215
0.00731775
0.0379954
0.00706361
0.0382589
0.00679697
0.0385116
0.00651749
0.0387529
0.00622486
0.0389826
0.00591873
0.0392002
0.00559873
0.0394054
0.0052646
0.0395976
0.00491611
0.0397765
0.00455301
0.0399419
0.00417487
0.0400933
0.00378137
0.0402304
0.0033721
0.0403529
0.00294658
0.0404605
0.0025046
0.0405528
0.00204601
0.0406296
0.00157059
0.0406905
0.00107808
0.0407353
0.000568084
0.0407639
4.01749e-05
0.0407756
-0.000504926
0.0407703
-0.00106714
0.040748
-0.00164698
0.0407086
-0.00224497
0.0406518
-0.00286144
0.0405773
-0.00349617
0.040485
-0.00414873
0.0403747
-0.00481898
0.0402464
-0.00550741
0.0400999
-0.00621434
0.0399357
-0.00693919
0.039754
-0.00768154
0.0395552
-0.00844119
0.0393395
-0.00921792
0.0391069
-0.0100117
0.0388573
-0.0108217
0.0385915
-0.0116474
0.0383104
-0.0124887
0.0380146
-0.0133449
0.0377055
-0.0142151
0.0373839
-0.0150983
0.0370507
-0.0159934
0.036706
-0.0168991
0.0363506
-0.0178148
0.0359861
-0.0187389
0.0356143
-0.0196701
0.0352374
-0.0206072
0.0348577
-0.0215496
0.0344763
-0.0224901
-0.0234669
0.0340924
0.0307757
0.00978222
-0.0303745
0.0311732
0.00971112
0.0315672
0.00963325
0.0319573
0.00954839
0.0323436
0.00945634
0.0327257
0.00935689
0.0331032
0.00924984
0.0334759
0.0091349
0.0338434
0.00901177
0.0342051
0.00888016
0.0345609
0.00873979
0.0349101
0.00859037
0.0352526
0.00843159
0.0355878
0.00826316
0.0359154
0.00808484
0.036235
0.00789632
0.0365462
0.00769724
0.0368488
0.00748731
0.0371422
0.00726625
0.0374263
0.00703372
0.0377005
0.0067894
0.0379644
0.00653302
0.0382177
0.00626419
0.03846
0.00598263
0.0386907
0.00568801
0.0389095
0.00537989
0.0391161
0.00505807
0.0393099
0.0047223
0.0394906
0.00437226
0.0396579
0.00400758
0.0398114
0.00362786
0.0399509
0.00323265
0.0400759
0.00282158
0.0401861
0.0023944
0.0402811
0.00195095
0.0403608
0.00149095
0.0404248
0.0010141
0.0404728
0.000520034
0.0405047
8.26469e-06
0.0405202
-0.000520381
0.0405189
-0.00106589
0.0405007
-0.00162878
0.0404653
-0.00220955
0.0404124
-0.00280857
0.040342
-0.00342568
0.0402538
-0.00406062
0.0401483
-0.00471345
0.0400255
-0.00538455
0.0398853
-0.00607418
0.039728
-0.0067819
0.0395538
-0.00750733
0.0393627
-0.00825013
0.0391551
-0.00901023
0.038931
-0.00978759
0.0386909
-0.0105816
0.0384355
-0.011392
0.0381656
-0.0122188
0.0378819
-0.0130612
0.0375853
-0.0139186
0.0372764
-0.0147894
0.0369558
-0.0156727
0.0366239
-0.0165673
0.0362823
-0.0174732
0.0359327
-0.0183892
0.0355769
-0.0193144
0.0352171
-0.0202474
0.0348557
-0.0211882
0.0344951
-0.0221295
-0.0231118
0.03414
0.0305107
0.00938064
-0.0301091
0.0309085
0.00931329
0.0313024
0.00923936
0.0316922
0.0091586
0.0320777
0.00907084
0.0324588
0.00897583
0.0328352
0.00887344
0.0332067
0.00876342
0.0335729
0.00864554
0.0339336
0.00851947
0.0342884
0.00838496
0.034637
0.00824181
0.0349788
0.00808974
0.0353136
0.00792842
0.0356409
0.00775756
0.0359603
0.00757688
0.0362715
0.00738605
0.036574
0.00718477
0.0368675
0.00697274
0.0371516
0.00674962
0.0374259
0.0065151
0.0376901
0.00626891
0.0379436
0.00601068
0.0381861
0.00574008
0.0384173
0.00545679
0.0386368
0.00516044
0.0388441
0.00485073
0.039039
0.00452742
0.0392211
0.00419017
0.03939
0.00383867
0.0395453
0.00347254
0.0396867
0.0030913
0.0398137
0.00269459
0.0399259
0.00228211
0.0400233
0.00185364
0.0401053
0.00140886
0.040172
0.000947463
0.0402229
0.000469113
0.0402578
-2.66648e-05
0.0402764
-0.000538955
0.0402784
-0.0010679
0.0402637
-0.00161404
0.040232
-0.00217785
0.0401832
-0.00275979
0.0401173
-0.0033598
0.0400343
-0.00397766
0.0399344
-0.00461354
0.0398176
-0.0052677
0.0396836
-0.00594023
0.0395326
-0.00663088
0.0393649
-0.00733958
0.0391807
-0.00806597
0.0389806
-0.00881011
0.038765
-0.00957206
0.0385346
-0.0103511
0.0382897
-0.0111472
0.0380308
-0.0119599
0.0377584
-0.0127888
0.037473
-0.0136331
0.0371751
-0.0144915
0.0368655
-0.0153631
0.0365454
-0.0162472
0.0362166
-0.0171444
0.0358809
-0.0180535
0.0355404
-0.0189739
0.0351975
-0.0199045
0.0348548
-0.0208455
0.0345154
-0.0217901
-0.0227794
0.034183
0.030261
0.00897855
-0.0298589
0.0306595
0.00891482
0.031054
0.00884483
0.0314443
0.00876827
0.0318302
0.00868497
0.0322114
0.00859468
0.0325876
0.0084972
0.0329587
0.00839233
0.0333244
0.00827986
0.0336843
0.00815951
0.0340383
0.00803097
0.034386
0.00789408
0.0347271
0.00774863
0.0350613
0.0075943
0.035388
0.0074308
0.0357071
0.00725782
0.0360181
0.00707506
0.0363206
0.00688229
0.0366141
0.00667924
0.0368982
0.0064655
0.0371725
0.00624074
0.0374368
0.00600462
0.0376906
0.00575686
0.0379336
0.00549708
0.0381655
0.00522495
0.0383857
0.00494025
0.0385938
0.00464259
0.0387896
0.00433164
0.0389727
0.0040071
0.0391426
0.00366868
0.0392992
0.00331602
0.0394419
0.00294861
0.0395704
0.00256609
0.0396842
0.00216823
0.0397832
0.00175466
0.0398671
0.00132494
0.0399358
0.000878778
0.0399889
0.000415988
0.0400262
-6.39291e-05
0.0400473
-0.000560045
0.0400522
-0.00107281
0.0400408
-0.00160266
0.040013
-0.00215003
0.0399685
-0.00271527
0.0399071
-0.00329841
0.0398288
-0.00389939
0.0397338
-0.00451846
0.0396218
-0.0051558
0.0394931
-0.00581149
0.0393478
-0.00648555
0.0391864
-0.00717823
0.0390096
-0.00788913
0.0388178
-0.00861825
0.0386113
-0.00936563
0.0383905
-0.0101302
0.0381553
-0.010912
0.0379057
-0.0117103
0.037642
-0.0125251
0.037365
-0.0133562
0.0370758
-0.0142022
0.0367756
-0.0150629
0.0364663
-0.015938
0.0361499
-0.0168281
0.0358284
-0.017732
0.0355041
-0.0186495
0.0351794
-0.0195798
0.0348565
-0.0205226
0.0345384
-0.021472
-0.0224651
0.0342241
0.0300274
0.00857635
-0.0296252
0.0304263
0.00851596
0.0308214
0.00844971
0.0312124
0.00837725
0.0315991
0.00829835
0.031981
0.00821277
0.0323579
0.00812028
0.0327295
0.0080207
0.0330956
0.00791379
0.0334558
0.00779931
0.0338098
0.00767694
0.0341575
0.00754644
0.0344984
0.00740767
0.0348324
0.00726037
0.0351589
0.00710427
0.0354776
0.00693909
0.0357882
0.00676446
0.0360904
0.00658013
0.0363838
0.00638584
0.036668
0.00618132
0.0369425
0.00596621
0.037207
0.0057401
0.0374611
0.00550279
0.0377043
0.00525387
0.0379363
0.00499296
0.0381568
0.0047198
0.0383653
0.00443401
0.0385617
0.00413525
0.0387456
0.00382327
0.0389164
0.00349783
0.0390739
0.00315856
0.0392176
0.00280484
0.0393474
0.00243634
0.0394628
0.00205286
0.0395635
0.00165397
0.0396493
0.0012391
0.0397201
0.000808001
0.0397754
0.000360695
0.0398148
-0.000103375
0.0398381
-0.000583301
0.0398452
-0.00107992
0.0398361
-0.00159363
0.0398108
-0.00212465
0.0397688
-0.00267331
0.0397102
-0.00323982
0.0396352
-0.00382438
0.039544
-0.00442726
0.0394368
-0.00504856
0.0393136
-0.00568833
0.0391747
-0.0063467
0.0390205
-0.00702405
0.0388514
-0.00771998
0.0386674
-0.00843422
0.0384685
-0.00916676
0.0382546
-0.00991638
0.0380258
-0.0106831
0.0377821
-0.0114666
0.0375244
-0.0122674
0.0372539
-0.0130858
0.0369726
-0.0139209
0.0366824
-0.0147727
0.0363853
-0.0156409
0.0360833
-0.016526
0.0357784
-0.017427
0.0354724
-0.0183436
0.0351674
-0.0192748
0.034865
-0.0202202
0.0345663
-0.0211734
-0.022171
0.0342723
0.0298123
0.00817438
-0.0294104
0.0302112
0.00811715
0.0306065
0.00805441
0.0309979
0.00798585
0.031385
0.0079112
0.0317676
0.00783018
0.0321453
0.0077426
0.0325177
0.00764826
0.0328846
0.00754688
0.0332457
0.00743826
0.0336005
0.00732214
0.0339487
0.00719818
0.0342901
0.00706627
0.0346243
0.00692617
0.034951
0.00677758
0.0352699
0.00662016
0.0355808
0.00645363
0.0358831
0.00627776
0.0361767
0.00609228
0.036461
0.00589697
0.0367357
0.00569152
0.0370004
0.00547545
0.0372546
0.00524857
0.037498
0.00501042
0.0377304
0.00476062
0.0379513
0.0044989
0.0381605
0.00422484
0.0383574
0.00393827
0.0385418
0.00363896
0.0387131
0.00332648
0.0388712
0.00300045
0.0390158
0.0026603
0.0391465
0.00230562
0.039263
0.0019363
0.039365
0.00155196
0.0394521
0.00115206
0.039524
0.000736125
0.0395804
0.00030425
0.0396212
-0.000144123
0.039646
-0.000608168
0.039655
-0.00108888
0.039648
-0.00158669
0.039625
-0.00210164
0.0395858
-0.00263412
0.0395305
-0.0031845
0.0394593
-0.00375315
0.0393723
-0.00434027
0.0392697
-0.00494596
0.0391515
-0.00557014
0.0390178
-0.00621299
0.0388686
-0.00687484
0.0387041
-0.00755544
0.0385242
-0.00825434
0.0383287
-0.0089713
0.0381179
-0.00970553
0.037892
-0.0104573
0.0376524
-0.011227
0.0374005
-0.0120155
0.0371385
-0.0128237
0.0368683
-0.0136507
0.0365918
-0.0144962
0.0363104
-0.0153595
0.0360254
-0.0162411
0.0357384
-0.01714
0.035451
-0.0180561
0.0351646
-0.0189885
0.0348809
-0.0199365
0.0345993
-0.0208918
-0.0218938
0.034322
0.0296179
0.00777275
-0.0292163
0.0300164
0.00771865
0.0304115
0.00765928
0.030803
0.00759441
0.0311903
0.00752386
0.0315732
0.00744729
0.0319513
0.00736449
0.0323243
0.00727526
0.0326919
0.00717932
0.0330537
0.00707641
0.0334095
0.0069664
0.0337587
0.00684892
0.0341012
0.00672378
0.0344366
0.00659085
0.0347643
0.00644983
0.0350841
0.00630035
0.0353957
0.00614207
0.0356986
0.00597483
0.0359925
0.00579835
0.0362772
0.00561231
0.0365523
0.00541641
0.0368175
0.00521026
0.0370724
0.00499369
0.0373165
0.00476633
0.0375494
0.00452769
0.0377707
0.00427754
0.0379802
0.00401534
0.0381776
0.00374089
0.0383624
0.00345412
0.0385344
0.0031545
0.0386933
0.0028416
0.0388386
0.002515
0.0389699
0.00217433
0.0390869
0.00181931
0.0391893
0.00144954
0.0392768
0.0010645
0.0393493
0.000663636
0.0394067
0.000246898
0.0394486
-0.000186067
0.039475
-0.000634527
0.0394856
-0.00109954
0.0394806
-0.00158168
0.0394599
-0.00208094
0.0394235
-0.00259765
0.0393712
-0.0031322
0.0393031
-0.00368505
0.0392191
-0.0042563
0.0391192
-0.00484604
0.0390033
-0.00545422
0.0388715
-0.00608118
0.038724
-0.00672736
0.0385609
-0.0073924
0.0383824
-0.00807583
0.0381886
-0.00877746
0.0379803
-0.00949728
0.037759
-0.0102359
0.0375265
-0.0109944
0.0372849
-0.011774
0.0370357
-0.0125746
0.0367799
-0.0133949
0.0365184
-0.0142347
0.0362524
-0.0150934
0.035983
-0.0159717
0.0357114
-0.0168685
0.0354393
-0.017784
0.0351677
-0.0187169
0.034898
-0.0196667
0.034631
-0.0206248
-0.0216375
0.0343747
0.0294451
0.0073712
-0.0290435
0.0298434
0.00732027
0.0302384
0.00726433
0.0306297
0.00720313
0.031017
0.00713653
0.0314
0.00706428
0.0317784
0.00698611
0.0321518
0.00690184
0.0325199
0.00681123
0.0328823
0.00671396
0.0332388
0.00660988
0.033589
0.00649878
0.0339324
0.00638039
0.0342687
0.00625452
0.0345975
0.00612099
0.0349184
0.00597952
0.0352309
0.00582956
0.0355348
0.00567092
0.0358298
0.00550338
0.0361155
0.0053266
0.0363915
0.00514035
0.0366575
0.00494431
0.036913
0.0047382
0.0371576
0.00452171
0.0373909
0.00429433
0.0376128
0.00405571
0.0378228
0.00380535
0.0380207
0.00354296
0.0382063
0.00326856
0.038379
0.00298177
0.0385385
0.00268206
0.0386845
0.00236904
0.0388165
0.00204233
0.0389343
0.00170152
0.0390377
0.00134612
0.0391266
0.000975622
0.0392006
0.000589663
0.0392594
0.000188101
0.0393026
-0.000229338
0.0393302
-0.00066213
0.0393421
-0.0011114
0.0393382
-0.00157777
0.0393185
-0.00206129
0.039283
-0.00256216
0.0392315
-0.00308068
0.0391638
-0.00361734
0.0390799
-0.00417239
0.0389798
-0.00474592
0.0388634
-0.00533784
0.0387312
-0.00594899
0.0385839
-0.00658008
0.038422
-0.00723052
0.0382457
-0.00789951
0.0380558
-0.00858751
0.0378539
-0.0092954
0.0376418
-0.0100238
0.0374211
-0.0107738
0.0371927
-0.0115456
0.0369567
-0.0123385
0.0367135
-0.0131517
0.0364643
-0.0139855
0.0362103
-0.0148394
0.0359526
-0.015714
0.0356925
-0.0166084
0.0354311
-0.0175226
0.0351689
-0.0184548
0.0349067
-0.0194044
0.0346457
-0.0203638
-0.0213846
0.0343927
0.0292936
0.00696952
-0.0288919
0.0296921
0.00692176
0.0300871
0.00686926
0.0304785
0.00681174
0.030866
0.00674903
0.0312493
0.00668104
0.0316279
0.00660745
0.0320017
0.00652809
0.0323701
0.00644278
0.032733
0.00635114
0.0330899
0.00625293
0.0334406
0.00614807
0.0337846
0.00603642
0.0341215
0.00591766
0.034451
0.00579146
0.0347728
0.00565766
0.0350866
0.00551585
0.0353917
0.00536579
0.0356878
0.00520725
0.0359745
0.00503986
0.0362515
0.00486341
0.0365183
0.00467756
0.0367746
0.00448186
0.0370202
0.00427606
0.0372547
0.00405983
0.0374776
0.00383283
0.0376884
0.00359454
0.0378868
0.00334457
0.0380726
0.00308283
0.0382453
0.00280904
0.0384047
0.00252261
0.0385507
0.00222309
0.0386829
0.00191017
0.0388009
0.00158348
0.0389045
0.0012425
0.0389936
0.000886521
0.039068
0.000515299
0.0391273
0.000128749
0.0391714
-0.000273388
0.0392001
-0.000690833
0.0392132
-0.00112447
0.0392101
-0.00157475
0.0391908
-0.00204192
0.0391551
-0.00252645
0.039103
-0.00302861
0.0390346
-0.00354894
0.0389501
-0.0040879
0.0388499
-0.00464568
0.0387341
-0.00522204
0.0386032
-0.00581811
0.0384581
-0.00643494
0.0382997
-0.00707212
0.0381289
-0.00772876
0.0379467
-0.00840529
0.0377544
-0.00910308
0.0375532
-0.00982261
0.0373433
-0.0105639
0.0371245
-0.0113268
0.0368973
-0.0121114
0.0366628
-0.0129172
0.0364222
-0.0137449
0.0361767
-0.0145939
0.0359272
-0.0154646
0.0356745
-0.0163556
0.0354187
-0.0172668
0.0351597
-0.0181958
0.0348968
-0.0191415
0.0346296
-0.0200966
-0.0211103
0.0343553
0.0291649
0.00656729
-0.0287627
0.029564
0.00652266
0.0299597
0.00647358
0.0303516
0.00641984
0.0307395
0.00636114
0.0311232
0.00629733
0.0315024
0.00622826
0.0318767
0.00615376
0.0322458
0.00607373
0.032609
0.00598788
0.0329662
0.00589579
0.033317
0.00579723
0.0336613
0.00569216
0.0339985
0.0055804
0.0343285
0.00546151
0.0346508
0.0053353
0.0349651
0.00520155
0.0352709
0.00506
0.0355678
0.00491039
0.0358554
0.00475224
0.0361334
0.0045854
0.0364013
0.00440965
0.0366586
0.00422454
0.036905
0.00402967
0.0371402
0.00382468
0.0373637
0.00360929
0.0375752
0.00338302
0.0377745
0.00314529
0.0379614
0.002896
0.0381354
0.00263498
0.0382963
0.00236168
0.0384439
0.00207553
0.0385779
0.00177621
0.0386977
0.00146359
0.0388031
0.00113719
0.0388933
0.000796232
0.0389683
0.000440349
0.0390276
6.94031e-05
0.0390709
-0.000316627
0.039098
-0.000717935
0.0391087
-0.00113518
0.039103
-0.00156904
0.039081
-0.00201999
0.0390432
-0.0024886
0.0389897
-0.00297513
0.0389209
-0.00348011
0.038837
-0.004004
0.0387384
-0.00454707
0.0386256
-0.00510922
0.0384991
-0.00569161
0.0383595
-0.00629538
0.0382076
-0.00692023
0.0380443
-0.00756545
0.0378702
-0.00823116
0.0376855
-0.0089184
0.0374905
-0.00962766
0.0372858
-0.0103592
0.037072
-0.011113
0.0368502
-0.0118895
0.0366215
-0.0126884
0.0363866
-0.0135101
0.0361463
-0.0143535
0.0359006
-0.0152189
0.0356495
-0.0161044
0.0353923
-0.0170096
0.0351284
-0.0179319
0.0348568
-0.0188699
0.0345758
-0.0198156
-0.0208109
0.0342764
0.029061
0.00616427
-0.028658
0.0294608
0.00612286
0.0298572
0.0060771
0.0302501
0.00602695
0.030639
0.0059723
0.0310234
0.00591294
0.0314031
0.00584857
0.0317778
0.00577902
0.0321473
0.00570426
0.0325111
0.00562403
0.0328689
0.00553796
0.0332205
0.0054457
0.0335655
0.00534716
0.0339036
0.00524229
0.0342343
0.00513075
0.0345574
0.00501225
0.0348724
0.00488658
0.035179
0.00475337
0.0354768
0.00461254
0.0357654
0.00446369
0.0360443
0.0043065
0.0363133
0.00414066
0.0365719
0.00396593
0.0368197
0.00378189
0.0370562
0.00358815
0.0372812
0.00338432
0.0374941
0.00317005
0.0376948
0.00294463
0.0378829
0.00270795
0.0380579
0.00245995
0.0382193
0.00220025
0.0383666
0.00192823
0.0384997
0.00164314
0.0386183
0.00134496
0.0387222
0.00103329
0.038811
0.000707424
0.0388844
0.00036695
0.0389423
1.15213e-05
0.0389842
-0.000358486
0.0390099
-0.000743706
0.0390196
-0.0011449
0.0390134
-0.00156282
0.0389916
-0.00199819
0.0389545
-0.00245149
0.0389024
-0.00292303
0.0388356
-0.00341329
0.0387543
-0.00392269
0.0386588
-0.00445155
0.0385497
-0.00500018
0.0384277
-0.00556956
0.0382928
-0.00616049
0.0381452
-0.00677265
0.0379854
-0.00740567
0.0378141
-0.00805988
0.037632
-0.00873629
0.0374398
-0.00943544
0.0372384
-0.0101577
0.0370285
-0.0109031
0.0368107
-0.0116718
0.0365854
-0.0124632
0.0363526
-0.0132772
0.0361121
-0.014113
0.0358631
-0.0149699
0.0356051
-0.0158464
0.0353369
-0.0167415
0.0350578
-0.0176528
0.0347672
-0.0185793
0.0344678
-0.0195162
-0.0205045
0.0341613
0.0289825
0.00576005
-0.0285782
0.0293834
0.00572195
0.0297806
0.00567983
0.0301741
0.00563347
0.0305637
0.0055827
0.0309491
0.00552755
0.0313299
0.00546776
0.0317059
0.00540301
0.0320768
0.00533342
0.032442
0.00525881
0.0328013
0.00517869
0.0331542
0.00509275
0.0335005
0.00500089
0.0338397
0.00490309
0.0341714
0.00479903
0.0344954
0.00468831
0.0348112
0.00457079
0.0351185
0.00444601
0.0354172
0.00431382
0.0357068
0.00417412
0.0359868
0.00402654
0.0362568
0.00387065
0.0365164
0.00370626
0.0367653
0.00353299
0.0370031
0.00335043
0.0372291
0.00315827
0.0374431
0.00295603
0.0376444
0.00274332
0.0378326
0.00251978
0.0380072
0.00228532
0.038168
0.0020395
0.0383144
0.00178176
0.0384462
0.0015114
0.0385632
0.00122797
0.0386653
0.000931145
0.0387523
0.000620493
0.0388237
0.000295494
0.0388797
-4.44582e-05
0.0389201
-0.000398884
0.0389449
-0.000768547
0.0389546
-0.00115461
0.0389493
-0.00155746
0.038929
-0.00197792
0.0388938
-0.00241632
0.0388439
-0.00287303
0.0387791
-0.00334856
0.0386999
-0.00384343
0.0386064
-0.00435812
0.0384994
-0.00489315
0.038379
-0.0054492
0.0382454
-0.00602683
0.0380988
-0.00662611
0.0379404
-0.00724722
0.0377711
-0.00789058
0.0375916
-0.00855682
0.0374024
-0.00924621
0.0372036
-0.00995895
0.0369953
-0.0106948
0.0367773
-0.0114538
0.0365493
-0.0122351
0.0363106
-0.0130385
0.0360605
-0.0138629
0.035798
-0.0147075
0.0355224
-0.0155708
0.0352325
-0.0164516
0.0349275
-0.0173478
0.0346064
-0.0182582
0.0342678
-0.0191776
-0.0201447
0.033908
0.0289292
0.00535476
-0.0285239
0.0293314
0.00531983
0.02973
0.00528118
0.0301248
0.00523867
0.0305155
0.005192
0.0309019
0.00514111
0.0312838
0.00508593
0.0316608
0.00502603
0.0320328
0.00496142
0.0323994
0.00489213
0.0327603
0.0048178
0.0331149
0.00473814
0.0334627
0.00465308
0.0338034
0.00456248
0.0341365
0.00446585
0.034462
0.0043629
0.0347792
0.00425352
0.0350879
0.00413736
0.0353876
0.00401409
0.035678
0.00388369
0.0359587
0.00374583
0.0362293
0.00360011
0.0364893
0.00344626
0.0367382
0.00328403
0.0369757
0.00311292
0.0372013
0.00293273
0.0374145
0.00274283
0.0376149
0.0025429
0.0378022
0.00233247
0.0379761
0.0021114
0.0381364
0.00187926
0.0382827
0.00163546
0.0384145
0.00137959
0.0385314
0.00111099
0.0386335
0.0008291
0.0387205
0.000533509
0.0387923
0.000223634
0.0388492
-0.000101359
0.0388911
-0.000440747
0.0389178
-0.000795286
0.0389296
-0.00116632
0.0389261
-0.00155405
0.0389074
-0.00195922
0.0388734
-0.00238229
0.0388242
-0.0028238
0.03876
-0.00328436
0.0386811
-0.00376457
0.038588
-0.00426504
0.0384812
-0.00478633
0.0383611
-0.00532904
0.0382279
-0.00589366
0.0380823
-0.00648047
0.0379248
-0.00708973
0.0377559
-0.0077217
0.0375757
-0.00837667
0.0373842
-0.00905467
0.037181
-0.0097557
0.0369656
-0.0104795
0.0367374
-0.0112256
0.0364958
-0.0119935
0.0362399
-0.0127826
0.0359688
-0.0135919
0.0356818
-0.0144205
0.0353782
-0.0152671
0.0350571
-0.0161306
0.0347184
-0.0170091
0.034362
-0.0179017
0.0339867
-0.0188023
-0.0197431
0.0335851
0.0289046
0.00494834
-0.0284982
0.0293079
0.00491649
0.0297079
0.00488122
0.0301042
0.00484238
0.0304964
0.00479979
0.0308843
0.00475322
0.0312677
0.00470257
0.0316461
0.00464757
0.0320194
0.00458818
0.0323871
0.00452437
0.0327491
0.00445585
0.033105
0.00438225
0.0334545
0.00430353
0.0337972
0.00421984
0.0341324
0.00413058
0.0344598
0.00403549
0.0347789
0.00393442
0.0350894
0.0038269
0.0353909
0.00371256
0.0356831
0.00359148
0.0359655
0.00346344
0.0362375
0.00332812
0.0364986
0.00318522
0.0367483
0.00303432
0.0369863
0.00287487
0.0372125
0.00270659
0.0374263
0.00252898
0.0376275
0.00234169
0.0378157
0.00214432
0.0379906
0.00193652
0.0381519
0.0017179
0.0382995
0.00148786
0.0384332
0.00124594
0.0385527
0.000991496
0.0386578
0.000723946
0.0387485
0.000442822
0.0388244
0.00014777
0.038885
-0.000161928
0.0389299
-0.000485688
0.0389589
-0.00082434
0.0389718
-0.00117917
0.0389685
-0.00155078
0.0389492
-0.0019399
0.0389141
-0.00234716
0.0388635
-0.00277317
0.0387977
-0.00321857
0.0387171
-0.00368398
0.038622
-0.00416998
0.0385128
-0.00467714
0.0383897
-0.00520595
0.0382529
-0.00575685
0.0381026
-0.00633011
0.0379388
-0.00692596
0.0377616
-0.00754453
0.0375708
-0.00818588
0.0373661
-0.00884993
0.0371469
-0.00953649
0.0369126
-0.0102452
0.0366625
-0.0109755
0.0363959
-0.0117269
0.0361119
-0.0124987
0.0358099
-0.0132898
0.0354891
-0.0140997
0.0351493
-0.0149272
0.0347903
-0.0157717
0.0344134
-0.0166322
0.0340207
-0.017509
0.0336178
-0.0183994
-0.0193375
0.0332121
0.0289138
0.00454046
-0.0285059
0.0293187
0.00451162
0.0297202
0.00447964
0.0301182
0.00444438
0.0305123
0.00440568
0.0309022
0.00436337
0.0312875
0.00431728
0.0316678
0.00426724
0.0320428
0.00421314
0.0324123
0.0041549
0.0327759
0.00409224
0.0331333
0.00402492
0.0334841
0.00395268
0.0338282
0.00387572
0.0341652
0.00379362
0.0344946
0.00370609
0.0348159
0.00361308
0.0351286
0.00351419
0.0354322
0.00340895
0.0357264
0.00329729
0.0360109
0.00317901
0.0362853
0.00305364
0.0365494
0.00292117
0.0368027
0.002781
0.0370451
0.00263253
0.0372761
0.00247558
0.0374952
0.00230987
0.0377019
0.00213497
0.0378957
0.00195049
0.0380763
0.00175596
0.0382432
0.00155096
0.0383962
0.00133492
0.0385347
0.00110736
0.0386585
0.000867707
0.038767
0.000615442
0.0388598
0.000350053
0.0389365
7.11094e-05
0.0389964
-0.000221899
0.0390398
-0.000529072
0.0390668
-0.000851314
0.0390773
-0.00118965
0.0390713
-0.00154484
0.039049
-0.00191758
0.0390104
-0.00230856
0.0389556
-0.0027184
0.0388848
-0.00314775
0.0387981
-0.00359725
0.0386956
-0.00406746
0.0385774
-0.00455893
0.0384435
-0.00507213
0.0382941
-0.00560743
0.0381291
-0.00616509
0.0379484
-0.00674528
0.0377519
-0.00734804
0.0375394
-0.00797334
0.0373104
-0.00862097
0.0370645
-0.00929062
0.0368012
-0.00998182
0.0365197
-0.010694
0.0362194
-0.0114266
0.0358995
-0.0121788
0.0355594
-0.0129498
0.035199
-0.0137393
0.0348183
-0.0145465
0.0344187
-0.015372
0.0340028
-0.0162163
0.0335759
-0.0170821
0.033146
-0.0179696
-0.0189134
0.032722
0.028965
0.00413032
-0.0285549
0.0293722
0.00410444
0.0297762
0.00407568
0.0301766
0.00404392
0.0305733
0.004009
0.0309659
0.0039708
0.031354
0.00392916
0.0317373
0.00388394
0.0321155
0.00383497
0.0324882
0.00378215
0.0328552
0.00372525
0.0332161
0.00366407
0.0335704
0.00359837
0.033918
0.00352812
0.0342585
0.00345312
0.0345914
0.00337315
0.0349164
0.00328804
0.0352332
0.0031974
0.0355413
0.00310084
0.0358405
0.00299814
0.0361303
0.00288919
0.0364104
0.00277353
0.0366804
0.00265122
0.0369395
0.00252186
0.0371873
0.00238475
0.0374233
0.00223962
0.037647
0.00208614
0.037858
0.00192395
0.0380558
0.00175266
0.03824
0.00157181
0.03841
0.00138096
0.0385653
0.00117958
0.0387055
0.000967174
0.03883
0.000743177
0.0389384
0.000507035
0.0390303
0.000258181
0.0391054
-3.97617e-06
0.0391633
-0.000279812
0.0392041
-0.000569871
0.0392277
-0.000874935
0.0392339
-0.00119584
0.0392224
-0.00153336
0.0391931
-0.00188824
0.0391458
-0.00226122
0.0390804
-0.00265301
0.0389969
-0.00306431
0.0388955
-0.00349577
0.038776
-0.00394802
0.0386387
-0.00442161
0.0384836
-0.00491701
0.0383107
-0.00543459
0.0381202
-0.0059746
0.0379121
-0.00653715
0.0376863
-0.00712222
0.0374426
-0.00772968
0.0371808
-0.00835918
0.0369005
-0.00901029
0.0366011
-0.00968241
0.036282
-0.0103749
0.0359426
-0.0110872
0.0355824
-0.0118185
0.0352012
-0.0125686
0.0347995
-0.0133375
0.0343789
-0.0141259
0.0339427
-0.0149358
0.0334965
-0.0157701
0.0330482
-0.0166338
0.0326071
-0.0175284
-0.0184832
0.0321769
0.0290708
0.00371651
-0.028657
0.0294818
0.00369344
0.0298898
0.00366776
0.0302943
0.00363933
0.0306953
0.00360804
0.0310924
0.00357375
0.0314852
0.00353634
0.0318735
0.00349566
0.0322569
0.00345157
0.0326351
0.00340392
0.0330078
0.00335255
0.0333746
0.00329727
0.0337351
0.0032379
0.0340889
0.00317428
0.0344358
0.00310627
0.0347753
0.00303365
0.035107
0.00295624
0.0354307
0.00287372
0.0357457
0.00278586
0.0360514
0.00269241
0.0363474
0.00259323
0.0366329
0.00248802