/*--------------------------------*- C++ -*----------------------------------*\
| =========                 |                                                 |
| \\      /  F ield         | OpenFOAM: The Open Source CFD Toolbox           |
|  \\    /   O peration     | Version:  2312                                  |
|   \\  /    A nd           | Website:  www.openfoam.com                      |
|    \\/     M anipulation  |                                                 |
\*---------------------------------------------------------------------------*/
FoamFile
{
    version     2.0;
    format      ascii;
    arch        "LSB;label=32;scalar=64";
    class       volVectorField;
    location    "700";
    object      U;
}
// * * * * * * * * * * * * * * * * * * * * * * * * * * * * * * * * * * * * * //

dimensions      [0 1 -1 0 0 0 0];

internalField   nonuniform List<vector> 
76025
(
(1.0607 -0.231379 0)
(1.06695 -0.230709 -6.42963e-21)
(1.07321 -0.229854 0)
(1.07949 -0.228842 0)
(1.08569 -0.227665 1.66208e-20)
(1.09213 -0.226074 3.70162e-20)
(1.09851 -0.224509 -6.73862e-20)
(1.10497 -0.222564 2.95997e-20)
(1.11141 -0.220542 1.12513e-20)
(1.11784 -0.218314 -1.19236e-20)
(1.12424 -0.215852 6.17064e-22)
(1.13067 -0.213115 -3.96644e-20)
(1.13713 -0.210216 5.28063e-20)
(1.14355 -0.207016 0)
(1.15001 -0.203489 -1.52657e-20)
(1.1563 -0.199942 0)
(1.16258 -0.195942 0)
(1.16878 -0.191873 0)
(1.17491 -0.187416 -1.70713e-20)
(1.18087 -0.182947 1.86585e-20)
(1.18679 -0.178042 1.92968e-20)
(1.19271 -0.172928 5.85803e-20)
(1.19844 -0.167606 -3.96005e-20)
(1.20405 -0.162012 -6.33602e-20)
(1.20954 -0.156251 -1.18759e-21)
(1.21489 -0.150331 -2.38216e-20)
(1.22023 -0.143906 6.85607e-20)
(1.2253 -0.137447 -6.92943e-20)
(1.23021 -0.130601 2.35755e-20)
(1.23491 -0.123393 -2.42142e-20)
(1.23939 -0.116429 -2.49612e-20)
(1.24378 -0.109111 5.26784e-20)
(1.24809 -0.101255 -7.9885e-20)
(1.25216 -0.0935112 -1.40421e-20)
(1.25597 -0.0854145 7.0929e-20)
(1.25946 -0.0774119 3.15058e-22)
(1.26277 -0.0689781 -1.45942e-20)
(1.26603 -0.0600836 7.75605e-21)
(1.26913 -0.0514312 2.83471e-22)
(1.27191 -0.0424287 -1.18637e-20)
(1.27435 -0.0334218 7.87615e-21)
(1.27664 -0.0239771 -3.89179e-21)
(1.2789 -0.0139851 7.75404e-21)
(1.28089 -0.00411177 -1.55939e-20)
(1.2825 0.00596506 -1.58881e-20)
(1.28383 0.0160904 3.07041e-20)
(1.28508 0.0266747 3.15118e-20)
(1.28611 0.0372073 -9.4651e-20)
(1.28675 0.0478763 6.16271e-20)
(1.28719 0.058714 -6.5613e-22)
(1.2874 0.069751 -1.5555e-19)
(1.28737 0.0810992 -6.10479e-20)
(1.28722 0.0927154 6.25787e-20)
(1.28686 0.104654 0)
(1.28611 0.116629 -6.07332e-20)
(1.28504 0.128666 -6.22547e-20)
(1.28381 0.14105 1.00372e-21)
(1.28222 0.153808 -6.09296e-20)
(1.28024 0.167078 6.1562e-20)
(1.27788 0.180724 -1.81569e-19)
(1.27563 0.194249 -1.24103e-19)
(1.27302 0.208686 -3.6085e-21)
(1.27006 0.223538 0)
(1.26668 0.238842 3.1135e-19)
(1.26296 0.254636 -1.2102e-19)
(1.25893 0.27061 6.24213e-20)
(1.25447 0.287838 -1.2407e-19)
(1.24953 0.306278 1.29084e-19)
(1.24698 0.324201 2.54928e-19)
(1.06156 -0.242068 -6.23597e-21)
(1.06814 -0.241378 -2.21441e-20)
(1.07474 -0.240468 2.85575e-20)
(1.08138 -0.239353 0)
(1.088 -0.238074 -4.6062e-20)
(1.09472 -0.236534 -3.04843e-21)
(1.10141 -0.234798 4.00479e-20)
(1.10813 -0.232825 0)
(1.11488 -0.230627 6.75553e-22)
(1.12164 -0.228222 1.2169e-20)
(1.12841 -0.225595 -1.28582e-20)
(1.13517 -0.222729 7.80945e-22)
(1.14191 -0.219633 0)
(1.14863 -0.216297 0)
(1.15534 -0.212668 -3.34671e-20)
(1.16197 -0.208851 8.25597e-20)
(1.16857 -0.204727 1.78642e-20)
(1.17508 -0.200404 -5.54421e-20)
(1.18154 -0.195786 3.68579e-20)
(1.18786 -0.190968 -1.89793e-20)
(1.19412 -0.185873 2.13057e-20)
(1.20025 -0.180526 -4.09907e-20)
(1.20627 -0.174925 4.36613e-20)
(1.21217 -0.169066 -6.70601e-20)
(1.21793 -0.162956 4.50916e-20)
(1.22356 -0.156629 7.07167e-20)
(1.22907 -0.15003 -4.78704e-20)
(1.23435 -0.143221 0)
(1.23945 -0.136146 0)
(1.24439 -0.128807 -2.68983e-20)
(1.24916 -0.121245 0)
(1.25381 -0.113473 -2.83262e-20)
(1.25824 -0.105466 2.86837e-20)
(1.26241 -0.0972887 -4.37571e-20)
(1.26635 -0.0889029 6.12222e-22)
(1.27007 -0.080308 -1.50021e-20)
(1.27358 -0.0714398 0)
(1.27689 -0.0623741 -3.22887e-20)
(1.28 -0.0531666 2.48875e-20)
(1.28286 -0.0437902 -2.07099e-20)
(1.28546 -0.0341706 1.24677e-20)
(1.28784 -0.0242916 -1.62208e-22)
(1.28998 -0.0143073 4.43272e-21)
(1.29187 -0.00425586 -4.12697e-21)
(1.2935 0.0059547 3.34921e-20)
(1.29489 0.0163956 -1.68018e-20)
(1.29606 0.027038 -1.70975e-20)
(1.297 0.0377451 3.23335e-20)
(1.29766 0.0486561 9.83738e-20)
(1.29807 0.0598037 -3.74354e-22)
(1.29824 0.0711448 9.70696e-20)
(1.29815 0.0827277 -3.25549e-20)
(1.29785 0.0945208 -9.63756e-20)
(1.29732 0.106444 6.41654e-20)
(1.29653 0.118493 0)
(1.29544 0.130903 1.9261e-19)
(1.29412 0.143551 6.30776e-22)
(1.29252 0.156463 -6.36278e-20)
(1.29063 0.169654 -6.48309e-20)
(1.28852 0.183178 0)
(1.2862 0.197244 6.17065e-20)
(1.2837 0.211687 1.90381e-19)
(1.28095 0.226442 0)
(1.27791 0.241663 -1.27682e-19)
(1.27456 0.257457 6.98184e-20)
(1.27081 0.273928 -1.3126e-19)
(1.26677 0.291193 6.54503e-20)
(1.26225 0.30899 -1.30931e-19)
(1.25867 0.327049 -1.30979e-19)
(1.06263 -0.253554 3.40192e-20)
(1.06947 -0.252811 -2.01508e-20)
(1.07636 -0.251843 8.37163e-21)
(1.08332 -0.250666 -3.71499e-20)
(1.09033 -0.249278 4.68966e-20)
(1.09736 -0.247671 4.32138e-20)
(1.10441 -0.245834 -5.44857e-20)
(1.11148 -0.243768 0)
(1.11857 -0.241466 7.10385e-22)
(1.12567 -0.238925 0)
(1.13276 -0.236144 1.45465e-20)
(1.13984 -0.23312 -1.44974e-20)
(1.14689 -0.229848 -8.00873e-20)
(1.15391 -0.226328 6.38559e-20)
(1.16089 -0.22255 -1.66486e-20)
(1.16784 -0.218511 -5.36993e-20)
(1.17473 -0.214213 1.82168e-20)
(1.18156 -0.20965 1.87644e-20)
(1.18831 -0.204833 6.10754e-20)
(1.19497 -0.199745 -4.06037e-20)
(1.20153 -0.194403 -2.19203e-20)
(1.20796 -0.188798 4.48516e-20)
(1.21427 -0.182933 -2.15312e-20)
(1.22045 -0.176805 -2.40641e-20)
(1.2265 -0.170418 0)
(1.23238 -0.163781 2.54882e-20)
(1.23809 -0.156907 2.55915e-20)
(1.24361 -0.149782 -2.50586e-20)
(1.24896 -0.142397 0)
(1.25413 -0.134769 5.53885e-20)
(1.25912 -0.12689 -2.90167e-20)
(1.26391 -0.118801 -1.24248e-21)
(1.26847 -0.110515 0)
(1.2728 -0.102013 1.49694e-20)
(1.2769 -0.0933052 -4.68819e-20)
(1.28077 -0.084384 3.18243e-20)
(1.2844 -0.0752647 0)
(1.28779 -0.0659618 2.51774e-20)
(1.29095 -0.0564892 -2.58931e-20)
(1.29388 -0.0468406 -4.27145e-21)
(1.29654 -0.0369808 0)
(1.29894 -0.0269281 -8.66569e-21)
(1.30111 -0.0167109 -4.33821e-21)
(1.30304 -0.0063312 4.16956e-21)
(1.30473 0.00422374 -2.54437e-20)
(1.30616 0.0149637 -1.74158e-20)
(1.30734 0.0258762 3.35995e-20)
(1.30827 0.0369372 -3.41474e-20)
(1.30892 0.048163 3.44045e-20)
(1.30932 0.0595618 -3.36612e-20)
(1.30946 0.0711296 -3.31911e-20)
(1.30935 0.0828832 6.8138e-20)
(1.30902 0.0948204 0)
(1.30847 0.106932 6.76324e-20)
(1.30767 0.119246 6.549e-22)
(1.30663 0.131803 -6.66086e-20)
(1.30535 0.144587 -6.65047e-20)
(1.30384 0.157631 1.32232e-19)
(1.30211 0.170989 -5.41134e-22)
(1.30018 0.184717 6.70041e-20)
(1.29806 0.198834 -1.34203e-19)
(1.29578 0.213317 -6.77422e-20)
(1.29326 0.228234 9.92415e-22)
(1.29045 0.243662 -6.64437e-20)
(1.28736 0.259661 -6.4767e-20)
(1.28396 0.276246 -2.05018e-19)
(1.28035 0.293563 0)
(1.27612 0.311487 -6.97411e-20)
(1.27301 0.330159 6.82318e-20)
(1.06387 -0.2658 0)
(1.071 -0.265013 -7.67649e-21)
(1.07819 -0.263987 -4.513e-20)
(1.08545 -0.262742 3.64453e-20)
(1.09278 -0.261273 3.30669e-20)
(1.10015 -0.259571 -5.44208e-20)
(1.10755 -0.257629 1.16285e-20)
(1.11498 -0.255447 -1.31417e-20)
(1.12241 -0.253023 -1.31794e-20)
(1.12986 -0.250351 -5.89993e-20)
(1.13729 -0.247425 5.9614e-20)
(1.14471 -0.244241 6.52103e-20)
(1.1521 -0.240796 -1.46222e-20)
(1.15946 -0.237086 -6.97193e-20)
(1.16677 -0.233107 5.42948e-20)
(1.17403 -0.228856 -1.94851e-20)
(1.18123 -0.224335 2.0254e-20)
(1.18837 -0.21954 2.10195e-20)
(1.19542 -0.214474 -6.38603e-20)
(1.20237 -0.209137 2.06099e-20)
(1.20922 -0.203528 2.21591e-20)
(1.21595 -0.197646 0)
(1.22255 -0.191493 5.01892e-20)
(1.22901 -0.185073 -2.47523e-20)
(1.23531 -0.178391 -5.18712e-20)
(1.24145 -0.171449 -5.40163e-20)
(1.24742 -0.16425 1.07516e-19)
(1.2532 -0.156791 -5.55293e-20)
(1.25878 -0.149074 0)
(1.26417 -0.14111 -5.83132e-20)
(1.26934 -0.132906 -9.02861e-22)
(1.27429 -0.124481 6.02093e-20)
(1.27901 -0.115842 -3.15583e-20)
(1.28349 -0.106985 8.04734e-20)
(1.28774 -0.0979162 -1.57935e-20)
(1.29175 -0.0886419 0)
(1.2955 -0.0791771 0)
(1.299 -0.0695283 8.95379e-21)
(1.30225 -0.0597059 8.81296e-21)
(1.30524 -0.0496858 4.62138e-21)
(1.30796 -0.0394645 -1.44121e-22)
(1.31042 -0.0290606 4.43192e-21)
(1.31261 -0.0184916 0)
(1.31454 -0.00777499 -3.11756e-22)
(1.31621 0.00309118 0)
(1.31761 0.0141174 1.72458e-20)
(1.31875 0.0253057 1.35135e-22)
(1.31962 0.0366325 -5.32445e-20)
(1.32023 0.0480842 0)
(1.32058 0.0596844 -3.50782e-20)
(1.32069 0.0714503 3.47287e-20)
(1.32057 0.0833891 -6.84673e-20)
(1.32023 0.095504 0)
(1.31967 0.107793 -2.07062e-19)
(1.31889 0.120278 6.54861e-22)
(1.31788 0.132975 6.81675e-20)
(1.31667 0.145902 6.80492e-20)
(1.31527 0.159087 0)
(1.31369 0.172567 0)
(1.31194 0.186381 -6.71846e-20)
(1.31002 0.200564 1.34521e-19)
(1.30793 0.215156 1.34788e-19)
(1.30561 0.230184 0)
(1.30306 0.245705 -1.40031e-19)
(1.30029 0.261785 0)
(1.29726 0.278464 2.08798e-19)
(1.29409 0.295888 -6.99502e-20)
(1.29031 0.313931 -7.21618e-20)
(1.28772 0.33285 -7.45672e-20)
(1.06522 -0.278772 0)
(1.07273 -0.277945 0)
(1.08028 -0.276864 -9.75303e-21)
(1.08788 -0.275549 4.29715e-20)
(1.09554 -0.273996 -5.42504e-20)
(1.10324 -0.272194 1.16454e-20)
(1.11099 -0.270141 0)
(1.11876 -0.267834 1.3292e-20)
(1.12655 -0.26527 0)
(1.13435 -0.262445 3.15635e-20)
(1.14215 -0.259354 2.69454e-21)
(1.14992 -0.255993 -3.30841e-20)
(1.15768 -0.252359 0)
(1.16539 -0.248446 3.80586e-20)
(1.17305 -0.244251 -1.16495e-19)
(1.18066 -0.239774 7.96909e-20)
(1.18819 -0.235013 -1.04398e-19)
(1.19565 -0.229968 2.15073e-20)
(1.20301 -0.224636 -2.31853e-20)
(1.21027 -0.219021 2.27585e-20)
(1.21742 -0.213123 2.42046e-20)
(1.22443 -0.206944 -7.44831e-20)
(1.23131 -0.200487 -5.1286e-20)
(1.23805 -0.19375 0)
(1.24461 -0.186741 5.4851e-20)
(1.25101 -0.179463 2.8533e-20)
(1.25721 -0.171914 -8.43419e-20)
(1.26322 -0.164099 2.86199e-20)
(1.26903 -0.156022 -6.05692e-20)
(1.27462 -0.147696 9.07846e-20)
(1.27998 -0.139137 -3.21505e-20)
(1.2851 -0.130346 1.64505e-20)
(1.28998 -0.121333 0)
(1.29462 -0.112101 -1.64805e-20)
(1.299 -0.10266 -1.68515e-20)
(1.30311 -0.0930152 0)
(1.30696 -0.083174 1.83188e-20)
(1.31055 -0.0731558 -2.74017e-20)
(1.31385 -0.062985 1.86078e-20)
(1.31689 -0.0526277 -9.43734e-21)
(1.31966 -0.0420724 -1.55382e-22)
(1.32215 -0.0313426 -7.12941e-21)
(1.32435 -0.0204616 2.32307e-21)
(1.32628 -0.00943938 9.13754e-21)
(1.32792 0.00171913 2.56186e-22)
(1.32928 0.0130212 5.52575e-20)
(1.33037 0.0244723 0)
(1.3312 0.0360526 3.5903e-20)
(1.33178 0.0477467 -4.507e-22)
(1.33213 0.0595761 -3.6085e-20)
(1.33224 0.0715578 0)
(1.33212 0.0836976 -3.60342e-20)
(1.33178 0.0959971 3.56114e-20)
(1.33123 0.108458 7.02163e-20)
(1.33047 0.121107 0)
(1.32951 0.13395 -1.40647e-19)
(1.32839 0.147008 1.40977e-19)
(1.32712 0.160308 -1.40588e-19)
(1.3257 0.173887 -1.25349e-21)
(1.32412 0.187788 0)
(1.32238 0.202055 -7.0607e-20)
(1.32047 0.216729 6.94296e-20)
(1.31837 0.23183 7.30428e-20)
(1.3161 0.247425 1.40377e-19)
(1.31368 0.263584 -2.1765e-19)
(1.31105 0.280346 1.44501e-19)
(1.30836 0.297866 -7.21132e-20)
(1.30512 0.316043 7.49629e-20)
(1.30324 0.335164 2.17842e-19)
(1.06657 -0.292499 3.50731e-20)
(1.07451 -0.291635 3.91872e-21)
(1.08249 -0.2905 -3.94946e-20)
(1.0905 -0.289117 0)
(1.09856 -0.28748 1.16481e-20)
(1.10665 -0.285579 0)
(1.11476 -0.283409 -2.85803e-20)
(1.12291 -0.280971 -1.90943e-21)
(1.13107 -0.27826 4.62811e-20)
(1.13923 -0.275274 -1.69751e-20)
(1.1474 -0.272006 -1.68359e-20)
(1.15555 -0.268452 -1.87458e-20)
(1.16367 -0.264609 0)
(1.17175 -0.260476 0)
(1.17977 -0.256048 2.01659e-20)
(1.18774 -0.251323 2.09793e-20)
(1.19563 -0.246303 -4.55864e-20)
(1.20342 -0.240989 4.55107e-20)
(1.21111 -0.235377 4.80628e-20)
(1.21869 -0.229467 -5.04117e-20)
(1.22615 -0.223259 1.01026e-19)
(1.23347 -0.216753 1.84102e-22)
(1.24063 -0.209957 -5.49226e-20)
(1.24764 -0.202875 -2.8656e-20)
(1.25446 -0.19551 -5.80217e-20)
(1.2611 -0.187873 5.81186e-20)
(1.26754 -0.179965 6.10164e-20)
(1.27377 -0.171783 -6.11884e-20)
(1.27979 -0.163337 0)
(1.28557 -0.154631 0)
(1.29112 -0.145675 8.2723e-20)
(1.29642 -0.136487 1.32307e-21)
(1.30146 -0.127083 -3.42522e-20)
(1.30622 -0.117471 -3.55211e-20)
(1.31072 -0.10765 3.57828e-20)
(1.31493 -0.0976308 0)
(1.31887 -0.087425 -1.84061e-20)
(1.32252 -0.0770406 -2.90385e-20)
(1.32589 -0.066494 1.9432e-20)
(1.32898 -0.0557555 -1.88891e-22)
(1.33177 -0.0448349 -1.52933e-21)
(1.33426 -0.0337513 7.1921e-21)
(1.33647 -0.0225263 4.92552e-21)
(1.33838 -0.0111895 9.6759e-21)
(1.34 0.000275073 -4.78387e-20)
(1.34135 0.0118843 2.46906e-22)
(1.34243 0.0236219 0)
(1.34325 0.0354732 -3.85297e-20)
(1.34381 0.0474348 1.13254e-19)
(1.34413 0.0595126 -7.54439e-20)
(1.34421 0.0717113 -3.73915e-20)
(1.34406 0.0840458 -6.35998e-22)
(1.34371 0.0965204 -3.65981e-20)
(1.34317 0.10914 -4.9967e-22)
(1.34245 0.121933 7.2816e-20)
(1.34158 0.134904 -7.37389e-20)
(1.34056 0.148077 -7.28969e-20)
(1.33942 0.161478 1.44637e-19)
(1.33813 0.17514 -5.19898e-22)
(1.33669 0.189115 7.2518e-20)
(1.3351 0.203447 -7.17728e-20)
(1.33334 0.218169 7.1521e-20)
(1.33147 0.233313 -1.43872e-19)
(1.32949 0.248949 -7.39357e-20)
(1.32742 0.265144 1.4412e-19)
(1.32523 0.281949 -7.69936e-20)
(1.32309 0.299532 -2.27953e-19)
(1.32048 0.317792 -7.45575e-20)
(1.31947 0.33703 0)
(1.06785 -0.307046 0)
(1.07627 -0.306142 1.04684e-20)
(1.08472 -0.304954 -7.82432e-22)
(1.0932 -0.303502 0)
(1.10172 -0.301779 0)
(1.11025 -0.299777 1.44292e-20)
(1.11881 -0.29749 -4.61694e-20)
(1.12737 -0.294916 6.32556e-20)
(1.13595 -0.292051 -3.1424e-20)
(1.14452 -0.288894 1.71424e-20)
(1.15307 -0.28544 0)
(1.16161 -0.281683 1.89248e-20)
(1.17011 -0.277621 -2.10169e-20)
(1.17857 -0.273252 0)
(1.18697 -0.268576 0)
(1.19531 -0.26359 2.32318e-20)
(1.20356 -0.258292 1.81008e-21)
(1.21172 -0.252679 -4.85434e-20)
(1.21976 -0.246756 -5.05443e-20)
(1.22768 -0.240526 5.18782e-20)
(1.23546 -0.23399 2.6499e-20)
(1.24308 -0.227151 1.12939e-19)
(1.25055 -0.220009 8.81575e-22)
(1.25784 -0.212569 -3.11127e-20)
(1.26494 -0.204832 6.00946e-20)
(1.27185 -0.196803 -3.10748e-20)
(1.27854 -0.188493 6.32067e-20)
(1.285 -0.17991 0)
(1.29123 -0.17106 0)
(1.29721 -0.161952 0)
(1.30293 -0.152593 -1.70521e-20)
(1.30839 -0.142997 -3.50486e-20)
(1.31357 -0.133171 3.60387e-20)
(1.31847 -0.123126 3.72878e-20)
(1.32307 -0.112874 -3.75252e-20)
(1.32738 -0.102433 0)
(1.33139 -0.0918126 1.97235e-20)
(1.33509 -0.0810301 -1.00844e-20)
(1.3385 -0.070101 0)
(1.34161 -0.0589842 1.01992e-20)
(1.3444 -0.0476874 -1.89499e-21)
(1.3469 -0.0362426 1.25667e-21)
(1.3491 -0.0246728 -4.93414e-21)
(1.35101 -0.0129826 0)
(1.35263 -0.00117481 -1.99854e-20)
(1.35395 0.0107459 1.97758e-20)
(1.355 0.0227718 0)
(1.35578 0.034894 -6.91373e-22)
(1.35629 0.0471093 4.81845e-22)
(1.35656 0.0594224 3.81677e-20)
(1.3566 0.0718318 0)
(1.35644 0.084354 -1.05118e-21)
(1.3561 0.0969964 -3.75216e-20)
(1.35561 0.109761 -1.14275e-19)
(1.35496 0.122686 -1.20168e-21)
(1.35418 0.135777 7.40161e-20)
(1.35324 0.149062 0)
(1.35216 0.162558 0)
(1.35092 0.176291 7.49218e-20)
(1.34954 0.190318 0)
(1.34803 0.204673 0)
(1.34644 0.219403 -2.53614e-22)
(1.34481 0.23455 -7.41844e-20)
(1.34316 0.250183 -1.51787e-19)
(1.34152 0.266381 1.51274e-19)
(1.33987 0.283204 -3.72193e-21)
(1.33837 0.300838 7.38695e-20)
(1.33651 0.319154 7.6737e-20)
(1.33638 0.338552 0)
(1.06912 -0.322478 0)
(1.07802 -0.321533 -1.05828e-20)
(1.08695 -0.320286 3.66954e-20)
(1.09592 -0.31876 -1.14255e-20)
(1.10494 -0.31695 0)
(1.11397 -0.314842 -4.57639e-20)
(1.12301 -0.312433 7.97411e-20)
(1.13206 -0.309719 2.14197e-21)
(1.14111 -0.306697 -8.95287e-20)
(1.15014 -0.303363 1.72798e-20)
(1.15914 -0.299717 -2.06041e-20)
(1.16811 -0.295753 -2.15844e-20)
(1.17704 -0.291465 6.59187e-20)
(1.18591 -0.286851 -9.10887e-20)
(1.19473 -0.281907 4.63852e-20)
(1.20346 -0.276637 -2.62269e-20)
(1.21209 -0.271042 1.01933e-19)
(1.22061 -0.26512 -2.46435e-20)
(1.22903 -0.258866 2.88911e-20)
(1.2373 -0.252286 -2.71726e-20)
(1.24543 -0.245387 1.73133e-21)
(1.2534 -0.23817 -1.78629e-19)
(1.26118 -0.230638 -3.14086e-20)
(1.26878 -0.222799 -1.57547e-21)
(1.27616 -0.214662 9.65888e-20)
(1.28332 -0.206228 -3.21584e-20)
(1.29025 -0.197504 6.8209e-20)
(1.29695 -0.188498 -1.03817e-19)
(1.30339 -0.179215 0)
(1.30958 -0.16966 -3.63158e-20)
(1.31548 -0.159848 3.64098e-20)
(1.32111 -0.149801 8.82155e-22)
(1.32643 -0.139532 -1.95325e-20)
(1.33145 -0.129053 -1.99004e-20)
(1.33616 -0.118374 6.01146e-20)
(1.34056 -0.107511 -4.01281e-20)
(1.34464 -0.0964702 3.11432e-20)
(1.34841 -0.0852534 -4.17759e-20)
(1.35186 -0.0738846 2.11354e-20)
(1.35498 -0.0623351 -5.20055e-21)
(1.35777 -0.0506378 0)
(1.36024 -0.0388061 5.26164e-21)
(1.3624 -0.0268498 -5.19721e-21)
(1.36425 -0.014793 -1.03832e-20)
(1.36579 -0.00264723 3.09075e-20)
(1.36704 0.00958727 -2.07291e-20)
(1.36801 0.0219039 -2.03066e-20)
(1.36873 0.0342973 0)
(1.3692 0.0467693 -8.10423e-20)
(1.36944 0.0593172 7.97767e-20)
(1.36949 0.0719296 -3.90638e-20)
(1.36934 0.0846319 3.86579e-20)
(1.36903 0.0974326 3.93692e-20)
(1.36856 0.110335 7.70802e-20)
(1.36793 0.123386 7.62012e-20)
(1.36712 0.136589 0)
(1.36615 0.149976 -7.69881e-20)
(1.36502 0.163549 0)
(1.36377 0.177317 1.22861e-21)
(1.36241 0.191343 -7.49386e-20)
(1.36104 0.205681 7.54769e-20)
(1.35969 0.220387 7.52807e-20)
(1.35841 0.2355 -7.7179e-20)
(1.35721 0.251112 -1.60347e-21)
(1.35614 0.267301 1.03642e-22)
(1.35516 0.284145 2.32527e-19)
(1.35439 0.301811 7.94109e-20)
(1.35335 0.320216 8.06236e-20)
(1.35393 0.339692 -7.82787e-20)
(1.07043 -0.338876 0)
(1.07982 -0.337884 0)
(1.08925 -0.336569 2.72887e-20)
(1.09873 -0.33496 -4.07686e-20)
(1.10826 -0.333052 -1.58002e-20)
(1.1178 -0.33083 0)
(1.12736 -0.328289 0)
(1.13692 -0.325426 1.90278e-20)
(1.14648 -0.322236 -3.99042e-20)
(1.15603 -0.318712 -3.56202e-21)
(1.16554 -0.314855 1.06415e-19)
(1.175 -0.310663 -2.19878e-20)
(1.1844 -0.306128 2.36666e-20)
(1.19374 -0.301251 -4.76372e-20)
(1.20299 -0.296028 2.61299e-20)
(1.21215 -0.290462 0)
(1.22121 -0.284552 0)
(1.23014 -0.278302 8.63961e-22)
(1.23894 -0.271709 -8.70649e-20)
(1.2476 -0.264768 2.91183e-20)
(1.2561 -0.257485 -3.17118e-20)
(1.26442 -0.249872 3.07934e-20)
(1.27254 -0.241928 3.23508e-20)
(1.28044 -0.233663 -3.15156e-20)
(1.28812 -0.225087 -3.32866e-20)
(1.29558 -0.216205 0)
(1.30278 -0.207025 0)
(1.30972 -0.197556 5.43853e-20)
(1.31639 -0.187806 0)
(1.32277 -0.177781 3.83128e-20)
(1.32886 -0.167493 -3.84216e-20)
(1.33463 -0.156972 -1.92642e-20)
(1.3401 -0.146225 1.9625e-20)
(1.34524 -0.13525 4.08743e-20)
(1.35006 -0.124072 -2.02827e-20)
(1.35454 -0.112719 -2.11352e-20)
(1.35868 -0.101208 2.17286e-20)
(1.36247 -0.0895371 0)
(1.36592 -0.0777357 0)
(1.36903 -0.065761 5.62088e-21)
(1.3718 -0.0536524 0)
(1.37423 -0.0414255 0)
(1.37634 -0.0290898 -1.63937e-20)
(1.37813 -0.0166632 2.17195e-20)
(1.37961 -0.00415626 -1.08825e-20)
(1.3808 0.00841515 2.08731e-20)
(1.38172 0.0210375 0)
(1.38238 0.0337125 6.29609e-20)
(1.3828 0.0464396 -5.43768e-22)
(1.383 0.0592136 0)
(1.38298 0.0720307 -8.11978e-20)
(1.38278 0.0849152 -4.57474e-22)
(1.38237 0.09787 -7.91916e-20)
(1.38179 0.110906 -4.00603e-20)
(1.38101 0.124082 -7.87249e-20)
(1.38005 0.137396 7.76109e-20)
(1.37895 0.150863 7.62664e-20)
(1.37774 0.164467 0)
(1.37652 0.178202 -7.69633e-20)
(1.37537 0.192175 3.74516e-22)
(1.37431 0.206464 0)
(1.37337 0.221128 0)
(1.37259 0.236207 7.70408e-20)
(1.37198 0.251796 0)
(1.37155 0.267966 0)
(1.37129 0.284806 -7.81446e-20)
(1.37125 0.302471 -7.7248e-20)
(1.37097 0.320942 -8.17768e-20)
(1.37212 0.340253 0)
(1.07184 -0.356341 0)
(1.08173 -0.355295 0)
(1.09167 -0.353909 0)
(1.10168 -0.352208 -1.60084e-20)
(1.11174 -0.350187 -1.83082e-20)
(1.12182 -0.347835 -2.44184e-21)
(1.13191 -0.345147 3.62473e-20)
(1.14201 -0.34212 -1.91812e-20)
(1.1521 -0.338751 2.16807e-20)
(1.16217 -0.335033 4.40922e-20)
(1.17221 -0.330959 0)
(1.18219 -0.326531 0)
(1.19212 -0.321738 -1.01352e-21)
(1.20197 -0.316577 7.83472e-20)
(1.21173 -0.311053 -1.09954e-19)
(1.22139 -0.305166 -2.13091e-21)
(1.23092 -0.298914 5.71777e-20)
(1.24031 -0.292296 2.91949e-20)
(1.24955 -0.285317 -1.86004e-21)
(1.25862 -0.277981 0)
(1.26751 -0.270293 6.56478e-20)
(1.2762 -0.26226 0)
(1.28468 -0.253881 6.91072e-20)
(1.29294 -0.245168 -1.05887e-19)
(1.30096 -0.236127 1.08718e-19)
(1.30871 -0.226765 3.80123e-20)
(1.31619 -0.217103 -5.74946e-20)
(1.32338 -0.20714 5.82809e-20)
(1.33028 -0.196882 -3.89876e-20)
(1.33688 -0.18635 0)
(1.34316 -0.175557 -4.10755e-20)
(1.3491 -0.164517 -2.183e-20)
(1.35471 -0.153251 4.19136e-20)
(1.35997 -0.141768 -4.28958e-20)
(1.36487 -0.130083 2.18491e-20)
(1.3694 -0.118219 -2.19677e-20)
(1.37357 -0.106208 -1.09698e-20)
(1.37737 -0.0940413 1.16417e-20)
(1.38082 -0.0817406 5.67539e-21)
(1.38392 -0.069276 -1.7092e-20)
(1.38666 -0.0566948 -1.45684e-21)
(1.38905 -0.0440262 0)
(1.3911 -0.031278 5.52465e-21)
(1.39282 -0.0184681 -1.09642e-20)
(1.39424 -0.00560676 1.0865e-20)
(1.39536 0.0072923 0)
(1.39619 0.020224 0)
(1.39674 0.0331817 2.17666e-20)
(1.39702 0.0461716 -4.23336e-20)
(1.39706 0.0591891 -8.44035e-20)
(1.39687 0.0722186 1.65836e-19)
(1.39647 0.0852627 -4.15991e-20)
(1.39587 0.0983667 4.06738e-20)
(1.39507 0.111562 3.988e-20)
(1.39411 0.124836 -8.00727e-20)
(1.39304 0.13821 7.89666e-20)
(1.39191 0.15168 0)
(1.39082 0.16523 -7.90299e-20)
(1.38987 0.178942 3.12707e-22)
(1.38907 0.192907 7.83209e-20)
(1.38842 0.207157 0)
(1.38795 0.22177 0)
(1.38769 0.23679 0)
(1.38763 0.252317 1.59882e-19)
(1.3878 0.268415 8.20461e-20)
(1.38817 0.285183 8.14661e-20)
(1.3888 0.302773 -1.6011e-19)
(1.38916 0.321173 -1.56975e-21)
(1.39129 0.340464 8.27046e-20)
(1.07336 -0.374956 0)
(1.08381 -0.373847 -2.9899e-20)
(1.0943 -0.37238 3.7785e-20)
(1.10485 -0.37058 -2.7375e-20)
(1.11545 -0.36844 5.32171e-20)
(1.12608 -0.365949 1.98758e-20)
(1.13673 -0.3631 2.10658e-20)
(1.14739 -0.359892 0)
(1.15804 -0.35632 -4.51889e-20)
(1.16867 -0.352382 -4.69043e-20)
(1.17926 -0.348071 4.83001e-20)
(1.1898 -0.343385 -2.67747e-20)
(1.20027 -0.338322 2.89381e-20)
(1.21066 -0.332871 -2.48138e-20)
(1.22096 -0.327024 -1.18037e-19)
(1.23113 -0.320791 -2.22518e-21)
(1.24116 -0.314184 -2.17385e-21)
(1.25104 -0.307192 6.30718e-20)
(1.26075 -0.299818 3.21035e-20)
(1.27028 -0.292064 6.90048e-20)
(1.27962 -0.283929 -6.67488e-20)
(1.28874 -0.275425 0)
(1.29762 -0.266559 2.15609e-21)
(1.30625 -0.257341 0)
(1.31461 -0.247794 -3.7288e-20)
(1.32268 -0.23792 -3.80941e-20)
(1.33045 -0.227738 1.94524e-20)
(1.33792 -0.217254 0)
(1.34507 -0.206459 2.1366e-20)
(1.3519 -0.195374 4.2559e-20)
(1.35838 -0.184026 -4.26436e-20)
(1.3645 -0.172434 2.12792e-20)
(1.37026 -0.160614 -4.45038e-20)
(1.37563 -0.148579 8.92067e-20)
(1.38063 -0.136349 -2.2684e-20)
(1.38525 -0.123945 0)
(1.38949 -0.111392 -1.19976e-20)
(1.39334 -0.0987015 5.27688e-22)
(1.39679 -0.0858875 1.79212e-20)
(1.39987 -0.0729257 -1.49119e-20)
(1.40257 -0.0598738 2.90025e-21)
(1.40488 -0.0467617 -8.90356e-21)
(1.40684 -0.0335781 5.83561e-21)
(1.40846 -0.0203322 0)
(1.40973 -0.00705275 0)
(1.41067 0.00622865 0)
(1.4113 0.019511 2.26359e-20)
(1.41162 0.0327917 2.23425e-20)
(1.41166 0.04607 0)
(1.41143 0.0593291 4.299e-20)
(1.41099 0.0725599 4.35963e-20)
(1.41035 0.0858015 4.25653e-20)
(1.40955 0.0990617 0)
(1.40862 0.112347 0)
(1.40759 0.125698 -8.17728e-20)
(1.40658 0.139092 8.07219e-20)
(1.40565 0.152516 0)
(1.40487 0.166045 7.96004e-20)
(1.40427 0.179737 -7.95902e-20)
(1.40381 0.193648 -8.05813e-20)
(1.40353 0.207824 8.04104e-20)
(1.40345 0.222345 -7.91844e-20)
(1.40361 0.237257 0)
(1.40401 0.252657 -7.93232e-20)
(1.40467 0.268613 1.56505e-21)
(1.40554 0.285216 -1.61293e-19)
(1.40669 0.302626 -1.65151e-19)
(1.40752 0.320764 1.63597e-19)
(1.4105 0.339713 -8.17649e-20)
(1.07497 -0.394795 -7.43896e-21)
(1.08601 -0.393624 0)
(1.09709 -0.392071 -8.14877e-21)
(1.10823 -0.390165 4.66596e-20)
(1.11942 -0.387896 -8.6664e-20)
(1.13065 -0.385253 2.01215e-20)
(1.14189 -0.382234 -2.12019e-20)
(1.15313 -0.378836 4.76972e-20)
(1.16437 -0.375052 -2.38628e-20)
(1.17557 -0.370883 -2.46927e-20)
(1.18674 -0.366318 -2.77175e-20)
(1.19785 -0.361345 8.39304e-20)
(1.2089 -0.355967 -2.6671e-20)
(1.21985 -0.350183 9.2577e-20)
(1.23068 -0.343991 3.26052e-20)
(1.24141 -0.337383 2.33717e-21)
(1.25198 -0.330373 -6.53856e-20)
(1.26239 -0.322964 0)
(1.27262 -0.315152 0)
(1.28264 -0.306946 -3.7363e-20)
(1.29243 -0.298356 -3.60233e-20)
(1.30198 -0.289384 -7.70873e-20)
(1.31128 -0.280029 3.91734e-20)
(1.32032 -0.270292 8.06202e-20)
(1.32906 -0.260193 -8.05624e-20)
(1.33751 -0.249749 2.13967e-20)
(1.34561 -0.238983 2.1792e-20)
(1.35338 -0.227909 0)
(1.36079 -0.216527 -2.13488e-20)
(1.36783 -0.204847 -4.48573e-20)
(1.3745 -0.192894 -5.59012e-22)
(1.38079 -0.180685 4.56456e-20)
(1.38668 -0.168242 -2.38936e-20)
(1.39217 -0.15559 0)
(1.39725 -0.142759 1.22297e-20)
(1.40192 -0.129776 -1.23725e-20)
(1.40617 -0.116655 1.19488e-20)
(1.41002 -0.103411 -2.47605e-20)
(1.41346 -0.0900604 0)
(1.41651 -0.0765803 -3.15983e-21)
(1.41915 -0.0630105 3.0671e-21)
(1.42139 -0.0493829 -4.64774e-21)
(1.42323 -0.0357171 1.80355e-20)
(1.42468 -0.0220323 -3.56826e-20)
(1.42575 -0.00834147 2.35185e-20)
(1.42647 0.00533634 2.3222e-20)
(1.42685 0.0189841 -2.22365e-20)
(1.42692 0.032592 4.60402e-20)
(1.42672 0.0461696 -4.48726e-20)
(1.42628 0.0596851 -1.10419e-19)
(1.42564 0.0731221 5.7956e-22)
(1.42486 0.0865103 -4.28596e-20)
(1.42396 0.0998998 0)
(1.42302 0.113277 0)
(1.42213 0.126617 -8.39351e-20)
(1.42131 0.139989 1.2436e-19)
(1.42061 0.153436 -8.23358e-20)
(1.42005 0.166957 0)
(1.41965 0.18059 8.18182e-20)
(1.4194 0.194411 1.61263e-19)
(1.41937 0.208468 -8.00831e-20)
(1.41958 0.22284 -1.09694e-21)
(1.42008 0.237578 7.96129e-20)
(1.42085 0.252777 4.43691e-22)
(1.42189 0.268508 -1.61437e-19)
(1.42309 0.284851 1.60772e-19)
(1.42452 0.301955 8.15008e-20)
(1.42554 0.319705 0)
(1.42879 0.338103 0)
(1.07669 -0.415989 7.48108e-21)
(1.08837 -0.41475 4.48514e-20)
(1.1001 -0.413104 -3.55873e-20)
(1.11188 -0.411086 0)
(1.1237 -0.408694 -1.02146e-20)
(1.13555 -0.405901 -4.65282e-20)
(1.14742 -0.402704 3.3802e-20)
(1.1593 -0.399097 -6.46689e-20)
(1.17118 -0.395074 5.12708e-20)
(1.18302 -0.390635 0)
(1.19479 -0.385781 1.28372e-20)
(1.2065 -0.380504 0)
(1.21813 -0.374791 3.34954e-20)
(1.22966 -0.368645 -9.46702e-20)
(1.24107 -0.362075 0)
(1.25235 -0.355074 0)
(1.26347 -0.347643 0)
(1.27442 -0.339783 -5.55437e-20)
(1.28517 -0.3315 7.42931e-20)
(1.2957 -0.322796 3.75496e-20)
(1.306 -0.313672 0)
(1.31605 -0.304135 0)
(1.32581 -0.294213 0)
(1.33526 -0.283917 -1.07298e-19)
(1.3444 -0.273251 1.28979e-19)
(1.3532 -0.26222 -6.49647e-20)
(1.36165 -0.250849 -4.48993e-20)
(1.36973 -0.239155 4.59639e-20)
(1.37743 -0.227151 -4.60528e-20)
(1.38474 -0.214857 2.4268e-20)
(1.39166 -0.202298 -4.80698e-20)
(1.39816 -0.189491 2.32865e-20)
(1.40425 -0.17645 4.91339e-20)
(1.40991 -0.163185 2.54925e-20)
(1.41514 -0.149724 -1.22389e-20)
(1.41991 -0.136106 1.23777e-20)
(1.42423 -0.122348 0)
(1.42807 -0.108453 -6.05857e-22)
(1.43147 -0.0944392 6.49468e-21)
(1.4344 -0.0803115 1.29101e-23)
(1.43687 -0.0661395 -3.18142e-21)
(1.43888 -0.051945 7.82892e-21)
(1.44047 -0.0377434 -1.25688e-20)
(1.44165 -0.0235644 -6.27287e-21)
(1.44246 -0.0094147 1.23852e-20)
(1.44293 0.00468096 0)
(1.44308 0.018696 -4.74649e-20)
(1.44295 0.0326306 -6.9863e-20)
(1.44258 0.046514 1.52738e-22)
(1.44202 0.0602886 6.80516e-20)
(1.44131 0.0738919 0)
(1.44052 0.0873692 0)
(1.43967 0.100819 -4.47005e-20)
(1.4388 0.114292 8.75881e-20)
(1.43797 0.127745 3.71167e-22)
(1.43721 0.141147 -4.2625e-20)
(1.43655 0.154534 1.66644e-19)
(1.43603 0.167968 -8.21789e-20)
(1.4357 0.181494 -8.10998e-20)
(1.43558 0.195176 -1.6272e-19)
(1.43574 0.20906 1.94523e-22)
(1.43617 0.223223 1.03834e-21)
(1.4369 0.237721 8.30105e-22)
(1.43787 0.252641 1.60713e-19)
(1.43907 0.268048 -7.89668e-20)
(1.44036 0.284017 -8.00888e-20)
(1.44177 0.300671 8.21812e-20)
(1.44272 0.317948 8.34253e-20)
(1.44499 0.335345 0)
(1.07853 -0.438691 -3.58825e-20)
(1.09089 -0.43739 1.71511e-20)
(1.10329 -0.435658 0)
(1.11578 -0.433516 -1.13536e-20)
(1.12831 -0.430963 0)
(1.14086 -0.427992 3.76434e-20)
(1.15341 -0.424592 -2.41981e-20)
(1.16596 -0.420761 5.46837e-20)
(1.17849 -0.416489 -5.54507e-20)
(1.191 -0.411764 -1.55013e-20)
(1.20344 -0.406591 7.85719e-20)
(1.2158 -0.400975 -6.3304e-20)
(1.22807 -0.394909 0)
(1.24024 -0.388382 -7.10482e-20)
(1.25228 -0.3814 1.44015e-19)
(1.26416 -0.373967 -7.29773e-20)
(1.27587 -0.366079 0)
(1.2874 -0.35774 -9.88603e-20)
(1.29871 -0.348947 1.40534e-19)
(1.30978 -0.339726 -8.16538e-20)
(1.32059 -0.330072 0)
(1.33113 -0.319987 0)
(1.34138 -0.309472 0)
(1.35131 -0.298552 2.18664e-20)
(1.36089 -0.287244 4.63418e-20)
(1.37011 -0.275565 -4.63158e-20)
(1.37895 -0.263529 2.30699e-20)
(1.38739 -0.251176 0)
(1.39541 -0.238489 4.92614e-20)
(1.40303 -0.225471 -7.33812e-20)
(1.41019 -0.212155 0)
(1.4169 -0.198594 5.06129e-20)
(1.42312 -0.1848 -2.48372e-20)
(1.42885 -0.170794 -2.50832e-20)
(1.43411 -0.156617 1.33194e-20)
(1.43887 -0.142312 0)
(1.44314 -0.127899 0)
(1.44691 -0.113375 1.30549e-20)
(1.4502 -0.098737 0)
(1.453 -0.0840184 -6.65769e-21)
(1.45531 -0.0692355 1.61635e-21)
(1.45717 -0.0544427 6.53173e-21)
(1.45858 -0.0396835 -1.32629e-22)
(1.45959 -0.0249865 1.27839e-20)
(1.46023 -0.0103703 2.56098e-20)
(1.46054 0.00414203 1.25325e-20)
(1.46054 0.0185393 -2.53464e-20)
(1.46028 0.0328149 -2.44938e-20)
(1.45979 0.0469625 -4.73569e-20)
(1.45912 0.0609549 4.68587e-20)
(1.45833 0.0747876 0)
(1.45744 0.0885051 -4.58669e-20)
(1.45649 0.102127 -3.92391e-22)
(1.45552 0.115646 4.86432e-22)
(1.45458 0.129062 -8.59196e-20)
(1.45373 0.142418 0)
(1.45303 0.155741 -4.1965e-20)
(1.45251 0.169074 0)
(1.45223 0.182456 0)
(1.45221 0.195951 8.03758e-20)
(1.45246 0.209607 -5.49755e-22)
(1.45296 0.223498 -8.03216e-20)
(1.45369 0.237674 8.00292e-20)
(1.45459 0.252214 -7.90126e-20)
(1.45561 0.267169 8.07543e-20)
(1.45664 0.282606 -7.97178e-20)
(1.45766 0.298627 -1.63141e-19)