/*--------------------------------*- C++ -*----------------------------------*\
| =========                 |                                                 |
| \\      /  F ield         | OpenFOAM: The Open Source CFD Toolbox           |
|  \\    /   O peration     | Version:  2312                                  |
|   \\  /    A nd           | Website:  www.openfoam.com                      |
|    \\/     M anipulation  |                                                 |
\*---------------------------------------------------------------------------*/
FoamFile
{
    version     2.0;
    format      ascii;
    arch        "LSB;label=32;scalar=64";
    class       volScalarField;
    location    "1200";
    object      epsilon;
}
// * * * * * * * * * * * * * * * * * * * * * * * * * * * * * * * * * * * * * //

dimensions      [0 2 -3 0 0 0 0];

internalField   nonuniform List<scalar> 
76025
(
0.000260219
0.000259876
0.000259478
0.000259135
0.000258455
0.000257936
0.000257179
0.000256666
0.000256088
0.000255684
0.000255169
0.000254688
0.000254164
0.000253733
0.000253278
0.000252942
0.000252449
0.000252104
0.000251473
0.000250964
0.000250278
0.000249654
0.000248913
0.000248251
0.000247622
0.000247045
0.000246542
0.00024597
0.000245374
0.000244755
0.000243943
0.000243413
0.000242595
0.00024195
0.000241153
0.000240418
0.000239839
0.000239166
0.000238817
0.000238153
0.000238161
0.000238274
0.000239149
0.000240105
0.000241962
0.000243792
0.000246592
0.00024916
0.000253208
0.000256873
0.000261994
0.000266877
0.000272809
0.000278143
0.000285222
0.000292408
0.000300578
0.000310731
0.000321095
0.000334601
0.000347428
0.000361559
0.00038625
0.00040492
0.000444715
0.000469476
0.000514612
0.000567604
0.000639273
0.00026193
0.000261545
0.000261094
0.00026075
0.000260234
0.000259784
0.000259181
0.000258624
0.000258005
0.00025748
0.000256936
0.000256507
0.000255987
0.000255596
0.000255122
0.000254701
0.000254224
0.000253801
0.000253332
0.000252862
0.000252326
0.000251808
0.000251217
0.000250653
0.000249952
0.000249322
0.000248573
0.000247974
0.000247329
0.000246789
0.000246197
0.000245667
0.000245266
0.000244762
0.000244659
0.000243953
0.000244113
0.000244355
0.00024485
0.000245465
0.000246483
0.000247635
0.000249253
0.000251058
0.000253287
0.000255857
0.0002587
0.000262242
0.000265775
0.000270406
0.000274548
0.00028041
0.000285197
0.000292823
0.000299114
0.000309151
0.000318232
0.00033123
0.000343609
0.000359312
0.000376567
0.00039893
0.000426519
0.000453795
0.000497728
0.000531485
0.000608305
0.000661237
0.000791976
0.000264602
0.000264172
0.000263687
0.000263302
0.000262847
0.000262433
0.000261936
0.000261431
0.000260859
0.000260301
0.000259708
0.000259193
0.000258687
0.000258248
0.000257845
0.000257462
0.000257055
0.000256645
0.00025621
0.000255801
0.000255366
0.000254954
0.000254574
0.000254192
0.000253738
0.000253354
0.000252695
0.00025225
0.00025129
0.000251132
0.000251025
0.000251005
0.00025112
0.000251293
0.000251624
0.000252001
0.000252591
0.00025324
0.0002542
0.000255216
0.000256655
0.000258098
0.000260128
0.000262086
0.000264789
0.000267373
0.000270855
0.000274283
0.000278687
0.000283144
0.000288518
0.000294412
0.000301051
0.000309072
0.000317498
0.000328807
0.000339711
0.000354444
0.00036815
0.000386915
0.000407377
0.000432338
0.000463854
0.00049534
0.000546653
0.0005903
0.000676565
0.000740512
0.000877855
0.000267714
0.000267449
0.000267029
0.00026663
0.000266205
0.000265837
0.000265442
0.000265051
0.000264598
0.000264127
0.000263603
0.000263063
0.000262521
0.000262001
0.000261551
0.000261136
0.000260842
0.000260361
0.000260122
0.00025934
0.000259275
0.000258567
0.000258198
0.000258288
0.000258344
0.000258372
0.000258359
0.000258375
0.000258354
0.000258433
0.000258574
0.000258814
0.000259139
0.00025957
0.000260138
0.00026082
0.000261705
0.000262706
0.000263975
0.000265376
0.000267116
0.000268976
0.000271322
0.000273754
0.000276842
0.000280013
0.000283992
0.000288096
0.000293091
0.000298293
0.000304505
0.000311316
0.000319118
0.000328334
0.000338574
0.000351217
0.000364141
0.000380536
0.000397514
0.000420336
0.000445256
0.00047641
0.00051402
0.000554449
0.000618546
0.000673598
0.000784188
0.000867187
0.00105497
0.000271824
0.000271676
0.000271405
0.000271066
0.000270682
0.000270284
0.000269906
0.000269542
0.000269198
0.000268857
0.000268529
0.000268264
0.000267937
0.000267605
0.000267233
0.000266918
0.000266588
0.000266273
0.000265711
0.000265422
0.000264516
0.000264166
0.000264464
0.000264698
0.000264884
0.00026508
0.000265325
0.000265616
0.000265958
0.000266362
0.000266834
0.000267394
0.000268063
0.000268821
0.000269743
0.000270749
0.000271995
0.00027333
0.000275007
0.000276807
0.000279054
0.000281418
0.000284391
0.000287408
0.000291262
0.000295031
0.000299911
0.000304556
0.000310668
0.000316469
0.000324283
0.000331832
0.000341946
0.000352256
0.000365449
0.000379089
0.00039563
0.000414001
0.000436529
0.000462513
0.000493737
0.000529315
0.000574408
0.000626277
0.000702539
0.000777828
0.000912465
0.00102062
0.00126291
0.00027768
0.000277446
0.000277184
0.000276894
0.000276598
0.000276353
0.000276068
0.000275859
0.000275606
0.000275347
0.000275086
0.000274136
0.000273759
0.000273379
0.000273054
0.000272637
0.000272375
0.000272047
0.000272432
0.000272806
0.000272972
0.000273113
0.000273313
0.000273547
0.000273847
0.000274173
0.000274589
0.000275032
0.000275592
0.000276185
0.000276933
0.000277731
0.000278738
0.000279795
0.000281127
0.000282519
0.000284242
0.000286038
0.000288245
0.000290561
0.000293386
0.000296341
0.000299957
0.000303681
0.000308282
0.000312888
0.000318709
0.000324375
0.000331783
0.000338892
0.000348444
0.000357595
0.000370091
0.000382142
0.000398158
0.000413625
0.000434493
0.000455508
0.000484064
0.00051255
0.000552137
0.000592271
0.000653276
0.000717744
0.00081834
0.000918129
0.00108969
0.00124055
0.001565
0.000284501
0.000284322
0.0002842
0.000284435
0.000284516
0.000284158
0.000283994
0.000283582
0.000282768
0.000282462
0.000282239
0.000282731
0.000281968
0.000282384
0.000282637
0.000282687
0.000282781
0.000282857
0.000283041
0.000283307
0.000283624
0.000283981
0.00028441
0.000284872
0.000285408
0.000285982
0.000286642
0.000287349
0.00028816
0.000289026
0.000290052
0.000291174
0.000292517
0.000293974
0.000295718
0.000297591
0.000299779
0.000302123
0.000304877
0.000307846
0.000311344
0.000315074
0.00031948
0.000324112
0.000329613
0.000335319
0.000342226
0.000349266
0.000358055
0.000366864
0.000378234
0.000389605
0.000404469
0.000419109
0.000438195
0.000457052
0.000482223
0.000507087
0.000541398
0.000575249
0.000625794
0.000676878
0.000759853
0.000842733
0.000977329
0.00111033
0.00133662
0.00156046
0.001974
0.000293089
0.000293014
0.000293175
0.00029298
0.000292742
0.000292944
0.000293227
0.000293363
0.000293391
0.000293484
0.000293597
0.000293856
0.000294037
0.000294297
0.000294589
0.000294862
0.000295159
0.000295448
0.000295772
0.000296121
0.000296532
0.000297006
0.000297586
0.000298269
0.000299048
0.000299942
0.000300936
0.000302049
0.000303273
0.000304596
0.000306058
0.000307656
0.000309431
0.000311356
0.000313522
0.000315879
0.000318533
0.000321445
0.000324784
0.000328459
0.000332703
0.000337314
0.000342673
0.000348406
0.000355086
0.000362199
0.000370505
0.000379374
0.00038986
0.000401072
0.000414672
0.000429033
0.000446515
0.000464651
0.000486854
0.000509896
0.000539196
0.000570133
0.000612535
0.000657592
0.000724434
0.00079477
0.000906717
0.00101667
0.00120137
0.00138102
0.00169748
0.00201143
0.00255555
0.000303202
0.000302874
0.000303429
0.000304241
0.000304791
0.000305241
0.000305667
0.000306059
0.000306377
0.000306682
0.000306984
0.000307331
0.000307713
0.000308142
0.000308635
0.000309187
0.000309809
0.000310499
0.000311245
0.000312045
0.000312866
0.000313724
0.000314592
0.000315534
0.000316519
0.000317621
0.00031881
0.000320182
0.000321702
0.00032345
0.000325382
0.000327559
0.00032991
0.000332494
0.000335298
0.000338379
0.000341782
0.00034552
0.000349751
0.000354347
0.000359589
0.000365197
0.000371654
0.000378532
0.000386519
0.00039514
0.000405139
0.000416164
0.000428899
0.000443054
0.000459386
0.000477147
0.000497672
0.000519891
0.000546094
0.000575477
0.000612022
0.000654699
0.000710354
0.000774933
0.00086381
0.000964974
0.00111242
0.00126902
0.00152055
0.00177552
0.00221596
0.00263985
0.00341704
0.000321438
0.000321421
0.000321536
0.000321796
0.000322135
0.000322509
0.000322906
0.000323344
0.000323791
0.000324254
0.000324739
0.000325221
0.000325726
0.000326253
0.000326806
0.000327411
0.000328081
0.000328843
0.000329694
0.000330663
0.00033173
0.000332915
0.000334194
0.000335587
0.000337075
0.000338689
0.000340419
0.00034232
0.000344378
0.000346684
0.000349219
0.000352062
0.000355142
0.000358548
0.000362209
0.000366208
0.000370548
0.000375258
0.000380497
0.000386166
0.00039258
0.000399484
0.00040741
0.000415936
0.000425817
0.000436573
0.000448994
0.000462788
0.000478456
0.000495943
0.000515594
0.000537345
0.000562372
0.00059056
0.000624293
0.000664098
0.000713781
0.000773968
0.000850297
0.000942813
0.00106419
0.00121009
0.00140835
0.00163934
0.00197968
0.00235038
0.00294072
0.00353614
0.00451885
0.000341551
0.000341887
0.000342245
0.000342638
0.000343066
0.000343578
0.000344127
0.000344728
0.000345366
0.000346046
0.000346784
0.000347605
0.000348485
0.000349451
0.000350497
0.000351597
0.000352748
0.00035396
0.000355245
0.000356612
0.000358045
0.000359545
0.000361101
0.000362738
0.000364452
0.000366301
0.000368278
0.00037047
0.000372865
0.000375585
0.000378605
0.000382023
0.000385792
0.000390017
0.000394649
0.000399773
0.000405386
0.000411513
0.00041826
0.000425589
0.000433686
0.000442446
0.000452234
0.000462883
0.000475018
0.0004884
0.000503754
0.000520902
0.000540335
0.000562206
0.000586964
0.000615165
0.000648174
0.000686557
0.000733358
0.000789841
0.000860724
0.000947078
0.00105605
0.00118956
0.00136088
0.00157104
0.00184595
0.00218219
0.00264035
0.00316514
0.00394562
0.00474654
0.00640952
0.000365983
0.00036657
0.000367171
0.000367801
0.000368457
0.000369192
0.000370001
0.000370878
0.000371829
0.00037283
0.000373869
0.000374978
0.00037614
0.000377389
0.000378754
0.00038024
0.00038184
0.000383564
0.000385406
0.000387362
0.000389391
0.000391486
0.000393624
0.000395844
0.000398157
0.000400632
0.000403295
0.000406197
0.000409399
0.000412979
0.000416956
0.000421398
0.000426311
0.000431758
0.000437725
0.000444249
0.000451348
0.00045905
0.000467456
0.000476631
0.000486677
0.000497725
0.000509972
0.000523582
0.000538961
0.000556184
0.000575873
0.000598074
0.000623474
0.000652416
0.000685823
0.000724713
0.000770939
0.000826139
0.000894161
0.000977434
0.00108127
0.00120793
0.00136632
0.00156006
0.00180452
0.00210505
0.00248711
0.00296003
0.00356603
0.00427854
0.00530807
0.00657257
0.00969477
0.000397349
0.000398243
0.000399159
0.000400086
0.00040105
0.000402101
0.000403242
0.000404492
0.000405842
0.000407317
0.000408879
0.000410542
0.000412283
0.000414102
0.000416009
0.000418017
0.000420123
0.000422325
0.000424622
0.000427046
0.000429594
0.000432288
0.0004351
0.000438048
0.000441133
0.000444404
0.000447909
0.000451716
0.000455912
0.00046055
0.000465691
0.000471378
0.000477649
0.000484555
0.000492111
0.00050034
0.000509315
0.000519072
0.000529774
0.000541563
0.000554577
0.000569119
0.000585375
0.000603772
0.000624635
0.000648342
0.000675472
0.000706347
0.000741879
0.000782746
0.000830679
0.000887405
0.000955912
0.00103914
0.00114162
0.00126691
0.00142069
0.00160749
0.00183719
0.00211593
0.00246055
0.0028797
0.00339774
0.00403532
0.00481736
0.00573576
0.00730929
0.0095866
0.0159232
0.000438017
0.000439373
0.000440776
0.000442177
0.000443624
0.000445155
0.000446791
0.000448538
0.000450412
0.000452417
0.000454575
0.000456853
0.000459266
0.000461773
0.000464371
0.000467045
0.0004698
0.000472649
0.000475599
0.000478693
0.00048198
0.000485529
0.000489393
0.000493577
0.00049809
0.000502907
0.000508047
0.000513561
0.000519497
0.0005259
0.000532843
0.000540375
0.000548603
0.000557572
0.000567407
0.000578104
0.000589883
0.00060274
0.000617001
0.000632799
0.000650499
0.000670439
0.00069304
0.000718812
0.000748284
0.000782075
0.000820988
0.000865838
0.00091806
0.000979307
0.00105229
0.00114001
0.00124643
0.00137541
0.0015317
0.00171969
0.00194588
0.00221657
0.00254219
0.00293066
0.00340046
0.00396096
0.00463769
0.00546254
0.00644755
0.00765514
0.0107966
0.0151908
0.0308804
0.000491673
0.000493639
0.000495682
0.000497737
0.000499851
0.000502064
0.000504384
0.000506838
0.000509419
0.000512154
0.00051504
0.000518106
0.000521322
0.000524719
0.000528249
0.000531949
0.000535802
0.000539819
0.00054403
0.000548416
0.000553037
0.000557892
0.000563073
0.000568591
0.000574545
0.000580939
0.000587896
0.000595473
0.000603759
0.000612816
0.000622729
0.000633524
0.000645272
0.000657995
0.000671801
0.000686736
0.0007031
0.000720999
0.00074092
0.000763185
0.000788451
0.000817177
0.000850152
0.000888099
0.000932067
0.000983125
0.00104268
0.00111238
0.00119457
0.00129209
0.00140857
0.00154784
0.00171398
0.00191099
0.0021435
0.00241656
0.00273708
0.0031124
0.00355373
0.00407031
0.00468375
0.00539972
0.00625411
0.00728642
0.00857498
0.0104688
0.0172399
0.0275208
0.0625853
0.00056387
0.000566653
0.000569544
0.000572468
0.000575475
0.000578605
0.000581874
0.000585294
0.000588882
0.000592651
0.000596609
0.000600796
0.000605186
0.000609852
0.000614741
0.00061992
0.000625388
0.000631176
0.000637323
0.000643805
0.000650682
0.000657951
0.000665684
0.000673914
0.000682683
0.000692089
0.000702187
0.000713028
0.000724767
0.00073745
0.000751285
0.000766331
0.000782782
0.000800769
0.000820458
0.000842163
0.000866203
0.000893034
0.000923253
0.000957643
0.000997056
0.00104243
0.00109493
0.0011559
0.00122694
0.00130982
0.00140663
0.00151993
0.00165279
0.00180865
0.00199115
0.00220369
0.00244982
0.00273334
0.003059
0.00343269
0.00386186
0.00435598
0.00492671
0.00558553
0.00635505
0.00723975
0.00828886
0.00961005
0.0116774
0.0151271
0.0294059
0.0551792
0.136571
0.000664984
0.000668956
0.000673088
0.000677269
0.00068157
0.000686033
0.000690678
0.000695523
0.000700585
0.000705896
0.000711466
0.000717345
0.00072353
0.000730094
0.000737029
0.0007444
0.000752234
0.000760589
0.000769523
0.000779067
0.000789274
0.000800213
0.000811905
0.000824503
0.000838035
0.000852555
0.000868066
0.000884654
0.000902405
0.000921511
0.000942185
0.000964752
0.000989582
0.00101711
0.0010478
0.00108229
0.00112127
0.00116557
0.00121619
0.00127433
0.00134123
0.00141825
0.00150697
0.00160916
0.00172682
0.00186206
0.00201735
0.00219538
0.00239911
0.00263147
0.0028954
0.00319395
0.00353074
0.00391038
0.00433867
0.00482327
0.00537257
0.00599866
0.00671007
0.00752471
0.00845801
0.00954343
0.0108094
0.0129375
0.0161383
0.0247038
0.0535363
0.117789
0.247802
0.000809455
0.000815401
0.000821613
0.000827938
0.000834467
0.000841249
0.000848307
0.000855668
0.000863357
0.000871411
0.000879867
0.000888772
0.000898171
0.000908126
0.000918693
0.000929942
0.000941947
0.000954802
0.000968595
0.000983448
0.000999434
0.00101676
0.00103555
0.00105593
0.00107803
0.00110198
0.0011279
0.00115599
0.00118645
0.00121965
0.00125595
0.00129594
0.00134022
0.00138954
0.00144465
0.00150653
0.00157621
0.00165481
0.0017437
0.0018442
0.00195794
0.00208613
0.00223042
0.00239246
0.00257404
0.0027771
0.00300389
0.00325686
0.00353873
0.00385244
0.00420142
0.00458972
0.00502232
0.00550545
0.00604606
0.00665305
0.00733381
0.00810295
0.00896135
0.00994976
0.0110575
0.0124609
0.0141001
0.0189056
0.0238491
0.0485392
0.102512
0.233938
0.329018
0.0010317
0.00104101
0.00105079
0.00106083
0.00107127
0.00108219
0.00109364
0.00110567
0.00111834
0.00113173
0.0011459
0.00116096
0.00117699
0.0011941
0.00121241
0.00123206
0.00125319
0.00127598
0.00130067
0.00132745
0.00135652
0.00138811
0.00142248
0.00145987
0.00150052
0.00154472
0.00159281
0.00164515
0.0017021
0.00176416
0.00183187
0.00190593
0.00198707
0.00207611
0.00217395
0.00228156
0.00239998
0.00253028
0.00267364
0.00283123
0.0030044
0.00319445
0.00340308
0.00363121
0.00388083
0.00415403
0.00445325
0.00478134
0.00514175
0.00553844
0.00597611
0.00646028
0.00699693
0.00759315
0.00825573
0.00899354
0.00981271
0.0107334
0.0117516
0.012968
0.0143112
0.01654
0.0193487
0.0295629
0.0422917
0.0994564
0.204254
0.352451
0.354235
0.00138916
0.00140722
0.00142641
0.00144645
0.00146754
0.00148978
0.00151327
0.00153808
0.00156433
0.00159213
0.00162161
0.00165288
0.00168622
0.00172179
0.00175975
0.0018003
0.00184364
0.00188999
0.00193964
0.00199277
0.00204986
0.00211131
0.00217737
0.00224839
0.00232465
0.0024065
0.0024942
0.00258812
0.00268863
0.00279612
0.00291111
0.00303415
0.00316578
0.00330666
0.00345751
0.00361908
0.00379224
0.00397787
0.00417699
0.00439072
0.0046204
0.00486753
0.00513404
0.00542214
0.00573455
0.00607316
0.00644135
0.00684312
0.00728305
0.00776636
0.00829869
0.00888627
0.0095349
0.0102516
0.011043
0.0119188
0.0128917
0.0139948
0.0152534
0.0168711
0.0188139
0.0229959
0.0288773
0.0495529
0.0830535
0.187893
0.352047
0.389257
0.352278
0.00209179
0.00212866
0.0021679
0.00220909
0.00225255
0.00229847
0.00234691
0.00239797
0.00245178
0.00250846
0.00256815
0.00263104
0.00269785
0.00276869
0.00284372
0.00292306
0.00300687
0.00309531
0.00318852
0.00328673
0.00338991
0.00349818
0.00361173
0.00373077
0.00385549
0.0039861
0.00412281
0.00426581
0.00441535
0.00457167
0.00473516
0.00490621
0.00508522
0.0052727
0.00546932
0.00567583
0.00589313
0.0061223
0.00636462
0.00662162
0.00689516
0.0071875
0.00750134
0.00784001
0.00820712
0.00860813
0.00904516
0.00952324
0.0100478
0.0106249
0.0112601
0.0119595
0.0127282
0.0135749
0.0145127
0.0155575
0.0167633
0.0181839
0.0200116
0.0225693
0.0266188
0.0352952
0.0499308
0.0928241
0.173823
0.337318
0.400468
0.384733
0.315858
0.00350908
0.00358151
0.00365825
0.00373864
0.00382294
0.00391127
0.00400364
0.00410006
0.00420057
0.00430519
0.00441398
0.00452692
0.0046436
0.00476415
0.00488869
0.00501731
0.00515008
0.00528709
0.00542837
0.00557399
0.00572398
0.00587835
0.00603713
0.00620037
0.00636809
0.00654038
0.00671731
0.006899
0.00708559
0.00727733
0.00747456
0.00767765
0.00788713
0.00810367
0.00832816
0.00856166
0.00880549
0.00906126
0.00933091
0.00961679
0.00992168
0.010249
0.0106026
0.0109873
0.0114081
0.0118707
0.0123816
0.0129435
0.0135618
0.0142426
0.0149909
0.0158156
0.0167241
0.0177423
0.0189115
0.0202704
0.0220241
0.0242572
0.0277809
0.0332564
0.0438807
0.0636932
0.103979
0.190138
0.328779
0.39365
0.39142
0.337693
0.266674
0.00624226
0.00636416
0.00648992
0.00661869
0.00675093
0.00688677
0.00702623
0.00716929
0.00731591
0.00746606
0.00761966
0.00777666
0.00793691
0.00810026
0.00826656
0.00843569
0.00860753
0.00878195
0.00895885
0.00913815
0.00931976
0.00950363
0.00968971
0.00987799
0.0100685
0.0102613
0.0104566
0.0106544
0.0108551
0.0110591
0.011267
0.0114793
0.0116969
0.0119208
0.0121524
0.0123933
0.0126457
0.012912
0.0131952
0.013499
0.0138274
0.0141855
0.0145787
0.0150131
0.0154948
0.01603
0.0166264
0.0172849
0.0180112
0.0188149
0.0197064
0.0207169
0.0218679
0.0232642
0.0250019
0.0272309
0.0306515
0.0354991
0.0447188
0.0597094
0.0898514
0.139957
0.233378
0.318901
0.369546
0.367358
0.328282
0.267924
0.21643
0.0109465
0.0111053
0.0112672
0.0114309
0.0115969
0.0117652
0.0119355
0.0121077
0.0122816
0.0124571
0.0126339
0.0128118
0.0129907
0.0131704
0.0133506
0.0135311
0.0137118
0.0138926
0.0140734
0.0142541
0.0144346
0.0146149
0.0147952
0.0149754
0.0151558
0.0153367
0.0155182
0.0157009
0.0158854
0.0160724
0.0162625
0.0164571
0.0166577
0.0168664
0.0170854
0.0173174
0.0175659
0.0178347
0.0181282
0.0184517
0.0188107
0.0192118
0.0196606
0.0201655
0.0207304
0.0213663
0.022076
0.0228675
0.023759
0.0247861
0.02599
0.0274861
0.0293189
0.0319081
0.0353613
0.0406822
0.0497489
0.0641592
0.0918249
0.13535
0.210763
0.288622
0.324789
0.337699
0.323175
0.287588
0.244188
0.202692
0.169104
0.0180198
0.0181885
0.0183582
0.018527
0.0186954
0.0188632
0.0190305
0.019197
0.0193624
0.0195268
0.0196894
0.0198505
0.02001
0.020167
0.0203219
0.0204749
0.020626
0.0207752
0.0209226
0.021069
0.0212135
0.0213568
0.0214994
0.0216423
0.0217845
0.021928
0.0220722
0.0222191
0.0223701
0.0225257
0.0226889
0.0228607
0.023043
0.0232385
0.0234507
0.0236838
0.0239428
0.0242335
0.0245623
0.0249359
0.025361
0.0258459
0.0263954
0.0270255
0.0277343
0.0285617
0.0294899
0.0305986
0.0319649
0.0337128
0.0359701
0.0391166
0.04332
0.050116
0.0595478
0.0772127
0.10426
0.152359
0.224213
0.296462
0.324031
0.320295
0.297622
0.258165
0.226418
0.199514
0.172725
0.147584
0.126675
0.0282635
0.0283974
0.0285304
0.0286621
0.0287916
0.028919
0.029045
0.0291675
0.0292869
0.0294035
0.0295143
0.0296218
0.0297258
0.0298259
0.0299225
0.030015
0.0301034
0.0301882
0.0302695
0.0303488
0.0304252
0.0305
0.0305744
0.0306497
0.0307251
0.0308041
0.0308856
0.0309735
0.0310687
0.0311725
0.0312918
0.0314294
0.0315908
0.0317822
0.0320104
0.0322831
0.0326081
0.0329935
0.0334482
0.0339806
0.0346003
0.0353217
0.0361534
0.0371449
0.0382813
0.0397095
0.041341
0.043754
0.0470757
0.0516674
0.0579579
0.0671567
0.0804425
0.100908
0.133224
0.191027
0.259117
0.322068
0.343584
0.333163
0.289127
0.224567
0.182689
0.160084
0.146306
0.133788
0.119702
0.104863
0.0916185
0.0420497
0.0421975
0.0423373
0.0424676
0.0425867
0.0426977
0.0428028
0.0428996
0.0429857
0.043064
0.0431322
0.0431966
0.0432565
0.043316
0.0433718
0.043424
0.0434724
0.0435184
0.0435625
0.0436056
0.0436494
0.0436951
0.0437432
0.0437946
0.0438575
0.0439264
0.044008
0.0441186
0.0442566
0.0444466
0.0446836
0.0449793
0.045343
0.0457804
0.0462973
0.0469039
0.0476029
0.048411
0.0493526
0.0504439
0.0517107
0.053196
0.0549454
0.0571221
0.0597634
0.0631203
0.0683603
0.0782255
0.0901995
0.105514
0.125393
0.153069
0.191159
0.242816
0.30055
0.340924
0.358251
0.338463
0.273197
0.192565
0.144068
0.119209
0.106444
0.100829
0.0976727
0.0934682
0.0866515
0.0776919
0.0683869
0.0736236
0.0738771
0.074133
0.0743787
0.0746099
0.0748243
0.0749991
0.0752237
0.0751497
0.075141
0.0751411
0.0751451
0.0751498
0.0751516
0.0751496
0.0751431
0.0751308
0.0751122
0.0750866
0.0750538
0.075002
0.0749462
0.0748675
0.0747861
0.0748775
0.0746419
0.0747114
0.0749952
0.0753362
0.0759344
0.0765975
0.0774593
0.0785442
0.0798294
0.0812901
0.0830434
0.0849319
0.0872663
0.0902323
0.0937669
0.0979107
0.102735
0.108512
0.115415
0.123967
0.134299
0.146972
0.158594
0.17405
0.194877
0.221709
0.258138
0.296078
0.329963
0.322259
0.276688
0.194473
0.139902
0.109311
0.0912021
0.0810311
0.0766249
0.0762972
0.0781051
0.0797418
0.0800229
0.0771748
0.0712046
0.0627248
0.235821
0.237549
0.239277
0.240919
0.2425
0.243978
0.245389
0.246726
0.247984
0.249189
0.250296
0.251348
0.252307
0.2532
0.254015
0.254752
0.255417
0.256012
0.256528
0.257106
0.256581
0.257066
0.256033
0.255285
0.254604
0.253754
0.252937
0.251932
0.250961
0.251493
0.248594
0.246975
0.246528
0.245822
0.242209
0.240413
0.233275
0.229551
0.229281
0.22746
0.223205
0.21723
0.20972
0.200659
0.189848
0.177007
0.161767
0.143628
0.122227
0.0972223
0.0716559
0.0586936
0.0653629
0.07902
0.0842952
0.0808627
0.0758584
0.0724766
0.0723048
0.0808665
0.0896678
0.101558
0.112547
0.122033
0.128205
0.129571
0.127092
0.118359
0.101903
0.000248268
0.000248679
0.000249115
0.000249579
0.000250016
0.000250722
0.000251721
0.000252634
0.000253341
0.000253913
0.000254592
0.000255183
0.000256639
0.000258482
0.000259885
0.000260344
0.000261448
0.000262634
0.000263055
0.000263801
0.000263659
0.000263706
0.000263838
0.000264621
0.0002656
0.000266502
0.000267268
0.000267329
0.000266715
0.00026705
0.000267631
0.000268732
0.000269786
0.000269599
0.000269625
0.00026903
0.000268935
0.000268749
0.000268172
0.000268182
0.000268033
0.000267959
0.000267755
0.000267083
0.000266358
0.00026578
0.000265141
0.000263911
0.0002622
0.000262182
0.00026253
0.000262805
0.000262743
0.000262566
0.000262003
0.000261242
0.000260823
0.000260635
0.000260514
0.000249622
0.000250038
0.000250525
0.000251096
0.000251889
0.000252689
0.000253245
0.00025372
0.000254123
0.000254724
0.000255476
0.000256522
0.000258538
0.000259752
0.000260497
0.000261063
0.000262292
0.000263114
0.000263572
0.000264069
0.000263926
0.000263991
0.000264181
0.000265054
0.000265982
0.000266889
0.000267569
0.000267671
0.000267103
0.000267393
0.000268031
0.000269036
0.000270113
0.000270059
0.00027017
0.000269856
0.000269608
0.000269467
0.00026898
0.000268809
0.000268906
0.000268821
0.000268751
0.000268478
0.000267894
0.000267265
0.0002667
0.000265931
0.000264783
0.000263641
0.00026325
0.000263455
0.000263659
0.000263639
0.000263628
0.00026316
0.000263073
0.000262771
0.00026238
0.000251949
0.000252405
0.000252944
0.000253444
0.000253936
0.000254277
0.000254562
0.000254922
0.000255456
0.000256296
0.000257419
0.000259069
0.000260344
0.000261001
0.000261486
0.000262259
0.000263523
0.000264065
0.000264477
0.000264671
0.000264705
0.000264717
0.000265173
0.000266049
0.000266955
0.000267885
0.000268549
0.000268665
0.000268017
0.000268298
0.000268959
0.000269865
0.00027093
0.000271051
0.000271252
0.000271164
0.000271037
0.00027083
0.000270624
0.000270187
0.000270334
0.00027026
0.000270242
0.000270139
0.000269959
0.00026951
0.0002691
0.000268413
0.000267485
0.000266552
0.00026577
0.000265416
0.00026536
0.000265148
0.000265171
0.000265099
0.00026505
0.000265063
0.000265025
0.000254689
0.000255004
0.000255356
0.0002556
0.00025587
0.000256123
0.00025654
0.000257168
0.000258075
0.000259242
0.000260486
0.000261643
0.000262279
0.000262723
0.000263352
0.000264441
0.000265277
0.000265639
0.000265886
0.00026597
0.000266013
0.000266285
0.000266854
0.000267763
0.000268611
0.00026955
0.000270094
0.000270279
0.00026976
0.000269979
0.000270731
0.000271475
0.000272584
0.000272882
0.000273152
0.000273162
0.000273065
0.000272924
0.000272746
0.00027243
0.000272499
0.00027249
0.000272477
0.000272452
0.000272374
0.000272266
0.000271815
0.000271644
0.000271067
0.000270296
0.000269431
0.000268775
0.000268406
0.00026827
0.00026786
0.000267726
0.000267694
0.000267974
0.000267758
0.000257753
0.000257963
0.000258227
0.000258454
0.000258827
0.000259304
0.000260013
0.000260897
0.000261922
0.000262946
0.000263805
0.000264416
0.000264796
0.00026537
0.000266245
0.000267197
0.000267637
0.000267818
0.000268002
0.000268089
0.000268297
0.000268685
0.00026934
0.000270213
0.000271031
0.000271982
0.0002725
0.000272711
0.000272246
0.000272469
0.000273249
0.000273929
0.000275047
0.000275487
0.000275892
0.000275914
0.000275901
0.000275794
0.0002757
0.000275515
0.000275725
0.000275666
0.00027573
0.00027574
0.000275696
0.000275613
0.000275381
0.000275231
0.000275204
0.000274611
0.000274401
0.00027388
0.000273317
0.000272909
0.000272587
0.000272314
0.000272275
0.000271881
0.000271933
0.00026203
0.000262072
0.000262475
0.000262834
0.000263405
0.000264054
0.000264849
0.000265665
0.000266447
0.000267082
0.000267554
0.00026795
0.00026844
0.000269226
0.000270139
0.000270652
0.00027085
0.000270944
0.000271127
0.000271293
0.000271631
0.000272108
0.00027283
0.000273641
0.000274453
0.000275405
0.000275907
0.000276142
0.000275741
0.000275974
0.000276784
0.000277409
0.000278544
0.000279106
0.000279603
0.000279832
0.000279899
0.000279747
0.000279796
0.000279777
0.000279922
0.000280049
0.000280015
0.000280169
0.000280068
0.000280225
0.000279939
0.000280038
0.000279565
0.000279421
0.000279416
0.000279021
0.000278802
0.000278099
0.000277876
0.000278145
0.000278151
0.000278093
0.000277875
0.00026782
0.000267887
0.000268403
0.000268841
0.000269426
0.000269992
0.00027061
0.000271134
0.000271591
0.000271962
0.00027234
0.000272809
0.000273442
0.000274265
0.000274851
0.000275157
0.000275269
0.000275161
0.00027542
0.000275691
0.000276127
0.000276684
0.000277399
0.000278154
0.000278975
0.000279911
0.000280402
0.000280659
0.000280325
0.000280575
0.00028142
0.000282008
0.000283172
0.000283865
0.00028444
0.000284841
0.000285071
0.000285121
0.000285157
0.000285219
0.000285395
0.000285661
0.000285663
0.000285902
0.000286008
0.000286004
0.000285969
0.000286129
0.000286245
0.000285946
0.000285878
0.000285981
0.000285698
0.000285589
0.0002855
0.000284968
0.000284884
0.000285013
0.000285046
0.000275343
0.000275274
0.000275846
0.0002761
0.000276581
0.000276985
0.00027733
0.000277671
0.00027802
0.000278374
0.000278781
0.00027929
0.000280018
0.000280708
0.000281123
0.000281184
0.000280886
0.000280901
0.000281288
0.000281654
0.000282157
0.00028273
0.000283448
0.000284145
0.000284994
0.000285908
0.000286396
0.000286679
0.000286415
0.000286696
0.000287579
0.000288136
0.000289316
0.000290136
0.000290792
0.000291323
0.000291719
0.000291982
0.000292135
0.000292273
0.000292519
0.000292858
0.000293127
0.000293124
0.000293124
0.000293098
0.00029304
0.000292995
0.000292956
0.000292823
0.000292802
0.000292835
0.000292846
0.000293194
0.000293632
0.000293316
0.000293201
0.00029341
0.000293319
0.000284793
0.00028482
0.000285163
0.000285236
0.000285364
0.000285162
0.000285693
0.000285982
0.000286259
0.000286547
0.000286999
0.000287827
0.000288598
0.000288918
0.000288568
0.000288463
0.000288325
0.000288606
0.000289013
0.000289367
0.000289887
0.0002905
0.000291147
0.0002918
0.000292687
0.000293561
0.000294052
0.000294362
0.00029416
0.000294483
0.000295413
0.000295969
0.000297179
0.000298147
0.000298918
0.000299578
0.000300125
0.000300594
0.000300945
0.00030122
0.000301561
0.00030201
0.000302456
0.000302823
0.00030317
0.000303492
0.000303779
0.000304025
0.000304222
0.000304605
0.000303983
0.000303702
0.000304348
0.000303855
0.000304241
0.000303998
0.000304164
0.00030355
0.00030397
0.000297146
0.000297052
0.000296708
0.000296856
0.000296987
0.000296814
0.000297033
0.000296831
0.000297269
0.000297521
0.00029866
0.000299071
0.000298705
0.000298545
0.000298586
0.00029846
0.00029843
0.000298714
0.000298962
0.000299422
0.000299997
0.000300565
0.000301124
0.000301766
0.000302704
0.000303529
0.000304036
0.000304372
0.000304249
0.000304627
0.000305607
0.000306165
0.000307379
0.000308478
0.00030938
0.000310179
0.00031088
0.000311541
0.000312124
0.000312611
0.000313098
0.000313669
0.000314312
0.000314912
0.000315496
0.000316062
0.000316622
0.00031716
0.000317664
0.000318211
0.000318668
0.000319017
0.000319515
0.000319871
0.000320194
0.000320588
0.000320836