/*--------------------------------*- C++ -*----------------------------------*\
| =========                 |                                                 |
| \\      /  F ield         | OpenFOAM: The Open Source CFD Toolbox           |
|  \\    /   O peration     | Version:  2312                                  |
|   \\  /    A nd           | Website:  www.openfoam.com                      |
|    \\/     M anipulation  |                                                 |
\*---------------------------------------------------------------------------*/
FoamFile
{
    version     2.0;
    format      ascii;
    arch        "LSB;label=32;scalar=64";
    class       volScalarField;
    location    "1200";
    object      k;
}
// * * * * * * * * * * * * * * * * * * * * * * * * * * * * * * * * * * * * * //

dimensions      [0 2 -2 0 0 0 0];

internalField   nonuniform List<scalar> 
76025
(
0.00196606
0.00196497
0.00196419
0.00196309
0.00196106
0.00195924
0.00195632
0.00195468
0.00195295
0.00195215
0.00195104
0.00195035
0.00194956
0.00194885
0.00194805
0.00194625
0.00194601
0.0019449
0.00194292
0.00194144
0.00193941
0.00193789
0.00193582
0.00193453
0.00193242
0.00193096
0.00192933
0.00192783
0.00192673
0.00192552
0.00192367
0.00192314
0.0019207
0.00191973
0.00191926
0.00191913
0.00191732
0.00191787
0.00191918
0.00192132
0.00192359
0.00192871
0.00193421
0.00194362
0.00195358
0.0019683
0.00198321
0.00200223
0.00202362
0.00204725
0.00207465
0.00210393
0.00213562
0.00216671
0.0022055
0.0022436
0.00228567
0.00233637
0.00239026
0.00246431
0.00253498
0.00262745
0.00275438
0.00288672
0.0030887
0.00325584
0.00349175
0.00372522
0.00407207
0.00197939
0.00197744
0.00197571
0.00197435
0.00197272
0.00197139
0.00196955
0.00196784
0.0019661
0.00196465
0.00196339
0.00196239
0.0019614
0.00196089
0.00195942
0.00195799
0.00195731
0.0019574
0.00195526
0.00195521
0.00195492
0.00195399
0.00195259
0.00195122
0.00194977
0.00194835
0.00194629
0.0019447
0.00194136
0.00194149
0.0019415
0.00194198
0.00194273
0.00194404
0.00194582
0.00194845
0.00195122
0.00195517
0.00195964
0.00196563
0.00197261
0.00198168
0.00199199
0.00200502
0.00201896
0.00203612
0.00205351
0.00207467
0.00209517
0.00212009
0.0021442
0.00217423
0.00220356
0.00224154
0.00227915
0.0023254
0.00237561
0.00243643
0.00250696
0.00259061
0.00269008
0.00281841
0.00296833
0.00314397
0.0033667
0.00357569
0.00392345
0.00415262
0.00467378
0.00199518
0.00199526
0.00199412
0.00199259
0.00199089
0.00198928
0.00198752
0.0019858
0.00198413
0.00198272
0.0019814
0.00198005
0.00197898
0.00197717
0.0019755
0.00197493
0.00197242
0.00197278
0.00197328
0.00197392
0.00197446
0.00197487
0.00197503
0.00197519
0.00197529
0.00197554
0.00197583
0.0019762
0.00197658
0.00197767
0.00197916
0.00198112
0.0019834
0.00198637
0.00198982
0.00199418
0.00199913
0.00200516
0.002012
0.00202036
0.00202971
0.00204111
0.00205341
0.00206818
0.00208345
0.00210134
0.00211948
0.00214042
0.00216237
0.00218778
0.00221585
0.00224839
0.00228464
0.00232682
0.0023719
0.00242634
0.00248463
0.00255765
0.00263667
0.00273851
0.00285297
0.00299986
0.00316945
0.00336909
0.00360802
0.0038581
0.00420344
0.00448205
0.00502912
0.0020158
0.00201444
0.00201393
0.00201349
0.00201241
0.00201155
0.00201167
0.00201145
0.00201016
0.00200813
0.00200577
0.00200576
0.00200317
0.0020014
0.0020002
0.00199881
0.00199971
0.00200083
0.00200173
0.00200271
0.00200381
0.00200501
0.00200634
0.00200774
0.00200924
0.00201087
0.00201263
0.00201459
0.00201673
0.00201915
0.00202193
0.00202517
0.00202897
0.00203341
0.00203864
0.00204466
0.00205164
0.00205952
0.00206852
0.00207874
0.00209021
0.00210329
0.00211732
0.00213343
0.00214995
0.00216925
0.00218879
0.00221232
0.00223684
0.00226648
0.00229828
0.00233615
0.00237739
0.00242597
0.00247883
0.00254224
0.00261183
0.00269683
0.00279241
0.00291412
0.0030518
0.00322974
0.00342308
0.00365559
0.00392234
0.00421133
0.00462034
0.00497308
0.00571869
0.00204069
0.00203896
0.00203918
0.00203664
0.00203607
0.00203644
0.00203638
0.00203403
0.00203346
0.00203211
0.0020308
0.00202939
0.00203003
0.00203059
0.00203161
0.00203255
0.00203383
0.00203517
0.00203663
0.00203806
0.00203969
0.00204151
0.0020436
0.00204596
0.00204858
0.00205148
0.00205464
0.00205804
0.00206181
0.00206579
0.00207033
0.00207531
0.00208104
0.00208722
0.00209429
0.00210177
0.00211029
0.00211934
0.00212982
0.00214133
0.00215458
0.00216918
0.00218531
0.00220309
0.0022222
0.00224377
0.00226701
0.00229402
0.00232348
0.00235791
0.00239609
0.00244066
0.00249054
0.00254812
0.00261215
0.00268685
0.00276966
0.00287022
0.00298568
0.00313068
0.00329398
0.00349557
0.00370638
0.00397276
0.00426174
0.00462796
0.00509501
0.0056056
0.00650518
0.0020726
0.00207428
0.00207534
0.0020763
0.00207384
0.00207246
0.00207175
0.00207325
0.00206983
0.00207151
0.00207363
0.00207462
0.00207534
0.00207606
0.00207711
0.00207845
0.00208013
0.00208193
0.00208395
0.00208592
0.00208804
0.00209019
0.00209252
0.00209512
0.00209806
0.00210142
0.00210524
0.00210949
0.00211425
0.00211945
0.00212534
0.00213174
0.00213899
0.00214666
0.00215538
0.00216449
0.00217491
0.0021859
0.00219852
0.00221214
0.00222755
0.00224425
0.00226277
0.00228304
0.00230551
0.00233068
0.00235882
0.00239099
0.00242711
0.00246888
0.00251578
0.00256989
0.00262995
0.00269805
0.00277371
0.00286028
0.00295925
0.00307889
0.00321925
0.00338859
0.00357755
0.00380013
0.00404288
0.00435483
0.00470671
0.00518432
0.00576989
0.00650287
0.00755898
0.00210849
0.00211029
0.00211307
0.00211539
0.0021172
0.00211847
0.00211959
0.00212124
0.00212214
0.00212335
0.00212487
0.00212624
0.0021275
0.00212869
0.00213007
0.00213169
0.00213377
0.00213612
0.00213884
0.00214175
0.00214494
0.00214833
0.00215199
0.00215594
0.00216025
0.00216492
0.00217002
0.00217555
0.00218159
0.00218814
0.00219543
0.00220317
0.00221177
0.00222076
0.00223093
0.00224166
0.00225388
0.00226703
0.00228189
0.00229811
0.00231616
0.00233592
0.00235775
0.00238188
0.00240885
0.00243913
0.00247341
0.00251225
0.00255648
0.00260693
0.00266386
0.00272847
0.00279976
0.00288023
0.00296998
0.00307383
0.00319497
0.00334028
0.00350851
0.0037043
0.00392105
0.00417745
0.00447411
0.00486191
0.00532028
0.00595852
0.00670925
0.00770236
0.00888705
0.00215625
0.00215838
0.00216195
0.00216529
0.00216848
0.00217129
0.00217372
0.00217607
0.00217823
0.00218037
0.00218257
0.00218486
0.00218717
0.00218957
0.00219197
0.00219451
0.00219722
0.00220025
0.00220363
0.00220742
0.00221152
0.00221593
0.00222058
0.00222555
0.00223087
0.00223669
0.00224295
0.00224983
0.00225725
0.00226548
0.00227466
0.00228472
0.00229584
0.00230772
0.00232076
0.00233473
0.00234999
0.00236656
0.00238459
0.00240441
0.00242593
0.00244972
0.00247576
0.00250496
0.0025375
0.00257444
0.00261598
0.00266333
0.002717
0.00277805
0.00284677
0.00292394
0.00300938
0.00310597
0.00321498
0.00334205
0.00349043
0.00366508
0.00386477
0.00409381
0.00435445
0.00467168
0.00505967
0.00556491
0.00619006
0.00702489
0.00798471
0.00922997
0.0105108
0.00222322
0.00222673
0.00223031
0.00223368
0.002237
0.00224022
0.00224331
0.00224634
0.00224929
0.00225224
0.00225515
0.00225811
0.00226112
0.00226431
0.00226767
0.00227128
0.00227518
0.00227946
0.00228411
0.00228935
0.00229498
0.00230115
0.00230761
0.00231449
0.00232159
0.00232916
0.00233711
0.00234559
0.00235465
0.00236465
0.00237563
0.00238774
0.00240109
0.0024158
0.00243199
0.00244971
0.00246879
0.00248941
0.00251132
0.00253517
0.00256082
0.00258911
0.00262022
0.00265535
0.00269468
0.00273961
0.00279
0.00284789
0.00291336
0.00298809
0.00307195
0.00316583
0.00327026
0.00338829
0.0035221
0.00367796
0.00385969
0.00407299
0.00431735
0.00460187
0.00493725
0.00535661
0.00588033
0.00655662
0.00739161
0.00844198
0.00962327
0.0110821
0.0125099
0.00231341
0.00231504
0.00231725
0.00231974
0.00232248
0.00232554
0.00232884
0.00233238
0.00233606
0.00233991
0.00234392
0.00234815
0.00235261
0.00235729
0.00236214
0.00236713
0.00237224
0.00237759
0.00238304
0.00238892
0.00239513
0.00240196
0.00240936
0.00241749
0.00242611
0.00243536
0.00244507
0.0024554
0.00246632
0.00247829
0.00249122
0.00250558
0.0025213
0.00253891
0.00255835
0.00258001
0.00260367
0.00262957
0.00265749
0.00268791
0.00272089
0.00275705
0.00279677
0.00284123
0.00289065
0.0029466
0.00300916
0.00308077
0.00316152
0.00325267
0.00335433
0.00346737
0.00359377
0.00373725
0.00390214
0.00409695
0.00432781
0.00460038
0.00491643
0.00529139
0.00574533
0.00631604
0.00702727
0.00791776
0.00897942
0.0102455
0.0116335
0.0132902
0.014672
0.00241543
0.00241829
0.00242137
0.0024245
0.00242779
0.0024313
0.00243513
0.00243929
0.00244378
0.0024485
0.00245341
0.00245848
0.00246377
0.0024694
0.00247542
0.00248188
0.00248868
0.00249591
0.00250346
0.00251141
0.00251975
0.00252852
0.0025378
0.00254768
0.00255826
0.00256961
0.00258173
0.00259485
0.00260901
0.00262461
0.00264152
0.00266025
0.00268047
0.00270278
0.00272686
0.0027533
0.00278191
0.00281317
0.00284696
0.002884
0.00292436
0.00296907
0.00301826
0.00307376
0.00313515
0.00320509
0.00328268
0.00337116
0.00346935
0.00357897
0.00370121
0.00383807
0.00399402
0.00417442
0.0043868
0.00464278
0.00494941
0.00531243
0.00573906
0.0062528
0.00687959
0.00765418
0.00859063
0.00970605
0.0109814
0.0124376
0.0139998
0.0157338
0.0174214
0.002537
0.00254146
0.00254613
0.00255076
0.00255543
0.00256025
0.00256528
0.00257058
0.00257623
0.00258229
0.0025888
0.00259579
0.00260315
0.00261087
0.00261877
0.00262696
0.00263543
0.00264443
0.00265405
0.00266452
0.00267588
0.00268812
0.00270114
0.00271477
0.00272899
0.00274371
0.00275901
0.00277518
0.00279242
0.00281117
0.00283164
0.00285422
0.00287907
0.00290654
0.00293671
0.00296976
0.00300569
0.00304471
0.0030867
0.00313266
0.00318275
0.0032386
0.00330015
0.00336991
0.00344685
0.00353444
0.00363019
0.0037388
0.00385769
0.00399167
0.004143
0.00431574
0.00451735
0.00475548
0.00504237
0.00539152
0.00581038
0.00630702
0.00689637
0.00760353
0.00844942
0.00945138
0.0106065
0.0119159
0.013361
0.0149537
0.0166071
0.018455
0.0208436
0.00269018
0.00269585
0.00270181
0.00270775
0.00271381
0.00271998
0.00272642
0.0027331
0.00274011
0.00274759
0.00275562
0.0027643
0.00277365
0.00278364
0.00279425
0.00280529
0.00281667
0.00282826
0.00284016
0.00285262
0.00286594
0.00288045
0.00289641
0.00291382
0.00293263
0.00295268
0.00297416
0.00299707
0.00302149
0.00304747
0.00307507
0.00310443
0.00313569
0.0031693
0.00320554
0.00324494
0.00328774
0.00333469
0.00338589
0.00344289
0.00350579
0.00357682
0.00365575
0.00374517
0.00384423
0.00395589
0.00407845
0.00421691
0.00436963
0.0045439
0.00474262
0.00497345
0.00524774
0.0055777
0.00597901
0.006464
0.00704058
0.00772016
0.00851775
0.0094475
0.0105134
0.0117139
0.0130383
0.0144805
0.0160288
0.0176718
0.0194054
0.0215609
0.0258071
0.00288455
0.00289215
0.00290002
0.00290785
0.00291583
0.002924
0.00293241
0.00294122
0.00295038
0.00296013
0.00297049
0.0029816
0.00299353
0.00300638
0.00302017
0.00303485
0.0030504
0.00306676
0.00308375
0.00310136
0.00311941
0.00313803
0.00315726
0.00317746
0.00319873
0.00322152
0.00324612
0.0032728
0.00330188
0.00333357
0.00336802
0.00340536
0.00344567
0.00348921
0.00353628
0.00358723
0.0036426
0.00370339
0.00376996
0.00384412
0.0039263
0.00401949
0.0041242
0.0042428
0.00437577
0.00452409
0.00468913
0.00487358
0.00508082
0.00531868
0.00559458
0.00592183
0.00631538
0.00678997
0.00735774
0.00802647
0.0088031
0.00969471
0.0107044
0.0118292
0.0130599
0.0143888
0.0158029
0.0172922
0.0188582
0.0204803
0.0224929
0.0256925
0.033846
0.00313054
0.00314081
0.00315147
0.00316217
0.00317312
0.0031844
0.00319603
0.00320813
0.00322072
0.00323393
0.00324787
0.00326254
0.00327813
0.00329463
0.0033122
0.00333076
0.00335036
0.00337098
0.00339251
0.00341485
0.0034379
0.00346163
0.00348619
0.00351178
0.00353893
0.00356799
0.00359946
0.00363378
0.00367135
0.00371265
0.00375766
0.00380688
0.00386024
0.00391814
0.00398105
0.00404928
0.00412401
0.00420627
0.00429697
0.00439795
0.00451124
0.00464023
0.00478652
0.00495191
0.00513741
0.00534406
0.00557595
0.00583703
0.00613671
0.00648412
0.00689253
0.00737598
0.00794689
0.0086142
0.00938176
0.0102511
0.0112215
0.0122883
0.0134434
0.0146768
0.0159778
0.0173376
0.0187402
0.0201794
0.0217009
0.0233544
0.0264949
0.0325857
0.0486043
0.00345219
0.00346542
0.00347922
0.0034932
0.00350762
0.00352258
0.00353814
0.00355433
0.00357125
0.00358895
0.00360754
0.00362704
0.0036476
0.00366923
0.00369209
0.0037162
0.0037416
0.00376835
0.00379647
0.00382588
0.0038566
0.0038884
0.00392161
0.00395647
0.00399337
0.00403295
0.0040758
0.00412269
0.00417405
0.0042306
0.0042922
0.00435971
0.00443287
0.00451257
0.00459927
0.00469389
0.00479809
0.0049134
0.00504153
0.00518535
0.00534869
0.00553514
0.00574766
0.00598849
0.00626027
0.00656711
0.00691429
0.00730958
0.00776143
0.00827977
0.00887396
0.00955109
0.0103149
0.0111656
0.0121003
0.0131136
0.0141976
0.015343
0.016542
0.0177841
0.0190569
0.0203482
0.0216489
0.022971
0.0245283
0.0266512
0.0331123
0.0450051
0.0756364
0.00388512
0.00390286
0.0039213
0.00394
0.00395923
0.00397916
0.00399985
0.00402138
0.00404383
0.00406729
0.00409188
0.00411767
0.00414481
0.00417342
0.00420364
0.00423561
0.00426951
0.00430545
0.00434371
0.0043843
0.00442767
0.00447397
0.0045235
0.00457648
0.00463326
0.0046942
0.00475965
0.00483002
0.00490572
0.00498727
0.00507519
0.00517034
0.00527379
0.00538675
0.00551096
0.00564839
0.00580155
0.00597339
0.00616713
0.00638671
0.00663594
0.00691955
0.00724051
0.00760287
0.0080104
0.00846691
0.0089767
0.00954391
0.0101727
0.0108666
0.0116275
0.0124554
0.0133482
0.0143018
0.0153107
0.0163686
0.0174687
0.0186027
0.0197611
0.0209269
0.0220845
0.0232288
0.0243797
0.0256162
0.0277062
0.0315135
0.043526
0.0676614
0.111251
0.00447947
0.00450496
0.00453146
0.00455841
0.00458615
0.00461484
0.00464456
0.00467541
0.00470748
0.0047409
0.00477581
0.00481237
0.00485078
0.00489127
0.00493409
0.00497954
0.00502792
0.00507969
0.00513543
0.00519551
0.00526042
0.00533059
0.00540657
0.0054888
0.00557781
0.00567402
0.00577786
0.00588978
0.00601032
0.00614021
0.00628042
0.0064323
0.00659765
0.00677846
0.00697723
0.00719676
0.00744023
0.00771108
0.00801289
0.00834933
0.0087236
0.00913887
0.00959723
0.0101017
0.0106522
0.0112502
0.011897
0.012593
0.0133384
0.0141328
0.014975
0.0158628
0.016793
0.0177619
0.0187643
0.0197933
0.0208394
0.0218888
0.0229274
0.0239326
0.0249005
0.0258649
0.026903
0.0283785
0.0319055
0.0394913
0.0616544
0.103132
0.137928
0.00531919
0.00535787
0.00539841
0.00544018
0.00548358
0.00552887
0.00557619
0.0056257
0.00567758
0.00573205
0.00578935
0.00584982
0.00591366
0.00598155
0.00605394
0.00613128
0.00621408
0.00630292
0.00639844
0.00650134
0.00661234
0.00673215
0.00686155
0.00700121
0.00715186
0.00731414
0.00748864
0.007676
0.0078769
0.00809215
0.00832273
0.00856996
0.00883529
0.00912038
0.00942718
0.00975789
0.0101148
0.0105001
0.0109162
0.0113648
0.0118476
0.0123658
0.0129201
0.0135112
0.0141392
0.0148048
0.0155077
0.0162454
0.0170182
0.0178251
0.0186646
0.0195344
0.0204306
0.0213479
0.0222774
0.0232073
0.024123
0.0250064
0.0258462
0.0266263
0.0273881
0.0282559
0.0294347
0.0321596
0.0383894
0.0545768
0.0918791
0.13631
0.147863
0.00662274
0.00668909
0.0067594
0.00683294
0.00691035
0.00699196
0.00707818
0.00716958
0.00726647
0.00736917
0.00747805
0.00759349
0.00771584
0.00784552
0.00798297
0.00812865
0.00828306
0.00844674
0.00862022
0.00880406
0.00899881
0.009205
0.00942312
0.00965364
0.00989698
0.0101535
0.0104235
0.0107073
0.0110052
0.0113175
0.0116446
0.0119871
0.0123456
0.0127208
0.0131135
0.0135248
0.0139556
0.0144069
0.0148798
0.0153751
0.0158936
0.0164361
0.0170031
0.0175954
0.0182136
0.0188584
0.0195303
0.0202303
0.020958
0.0217103
0.0224847
0.0232768
0.0240785
0.0248796
0.0256644
0.0264175
0.0271234
0.0277717
0.0283684
0.0289313
0.0296074
0.030721
0.0328769
0.0387585
0.0505209
0.0809891
0.12873
0.149337
0.148613
0.00886872
0.0089959
0.00913068
0.00927194
0.00942019
0.00957565
0.00973843
0.00990867
0.0100865
0.0102722
0.0104659
0.0106677
0.0108778
0.0110963
0.0113233
0.0115589
0.0118033
0.0120566
0.0123189
0.0125903
0.0128709
0.0131609
0.0134602
0.0137689
0.014087
0.0144143
0.0147509
0.0150964
0.0154509
0.0158141
0.0161862
0.0165671
0.0169569
0.0173558
0.0177641
0.0181824
0.0186112
0.0190512
0.0195034
0.0199686
0.0204478
0.0209423
0.0214532
0.0219821
0.0225301
0.0230988
0.0236882
0.0242991
0.0249307
0.0255818
0.026242
0.0268998
0.0275425
0.0281516
0.0287082
0.0292087
0.0296475
0.0300491
0.0304533
0.0309867
0.0320142
0.0343182
0.0392659
0.0510819
0.0754737
0.119252
0.144202
0.150147
0.142779
0.0128364
0.0130311
0.0132344
0.0134447
0.0136624
0.0138877
0.0141204
0.0143603
0.0146074
0.0148615
0.0151226
0.0153904
0.015665
0.0159462
0.0162339
0.0165278
0.0168278
0.0171335
0.0174448
0.0177612
0.0180826
0.0184086
0.0187388
0.0190729
0.0194106
0.0197514
0.020095
0.0204411
0.0207892
0.0211391
0.0214907
0.0218437
0.0221983
0.0225546
0.022913
0.023274
0.0236384
0.0240071
0.0243814
0.0247624
0.0251517
0.0255511
0.0259627
0.0263884
0.0268295
0.0272869
0.0277574
0.0282437
0.0287403
0.0292434
0.0297297
0.0301765
0.0305808
0.0309019
0.0311515
0.0313813
0.0315808
0.0318977
0.0323975
0.0335673
0.0361011
0.0414598
0.0525531
0.0750686
0.110716
0.134051
0.144571
0.14093
0.130869
0.0185839
0.0188061
0.0190371
0.019275
0.0195203
0.0197729
0.0200323
0.0202982
0.0205703
0.0208479
0.0211308
0.0214185
0.0217103
0.0220059
0.0223045
0.0226058
0.0229091
0.0232138
0.0235194
0.0238254
0.0241312
0.0244362
0.02474
0.025042
0.0253418
0.0256388
0.0259326
0.0262229
0.0265092
0.0267914
0.0270694
0.0273431
0.0276124
0.0278779
0.0281399
0.0283993
0.0286573
0.0289153
0.0291749
0.0294377
0.0297053
0.0299813
0.0302682
0.0305669
0.0308769
0.031194
0.0315086
0.0318396
0.0321566
0.0324499
0.0326617
0.0327652
0.0327978
0.0328046
0.0327678
0.0329685
0.0331347
0.0341179
0.0355161
0.0388676
0.0456334
0.0573255
0.0792147
0.103902
0.122156
0.132687
0.131821
0.124829
0.115516
0.025718
0.0259183
0.026127
0.0263422
0.026564
0.026792
0.0270255
0.0272639
0.0275063
0.0277523
0.0280009
0.0282514
0.0285029
0.0287544
0.0290054
0.029255
0.0295025
0.0297474
0.0299891
0.030227
0.0304605
0.0306888
0.0309114
0.0311279
0.0313382
0.0315414
0.0317375
0.0319254
0.032106
0.0322759
0.0324378
0.0325923
0.0327392
0.0328805
0.0330133
0.033142
0.0332683
0.0333941
0.033521
0.0336495
0.0337805
0.0339262
0.0340826
0.0342405
0.034399
0.034531
0.0346469
0.0346313
0.0345606
0.0344364
0.0342199
0.0340016
0.0338227
0.0337703
0.0338063
0.0345474
0.0356052
0.0384184
0.043534
0.0522255
0.0681356
0.0871607
0.099859
0.110567
0.116155
0.116376
0.112457
0.105895
0.0979789
0.0332029
0.033351
0.0335043
0.0336605
0.03382
0.0339823
0.0341471
0.0343137
0.0344812
0.0346496
0.034816
0.0349818
0.0351421
0.0352973
0.0354479
0.0355941
0.0357355
0.0358721
0.0360062
0.036133
0.0362558
0.0363673
0.0364712
0.0365694
0.0366634
0.0367454
0.0368224
0.0368838
0.0369447
0.0369528
0.0369929
0.037033
0.0370606
0.0370861
0.0370637
0.037058
0.0370544
0.0370521
0.0370499
0.0370424
0.0370157
0.036965
0.0369261
0.0367605
0.0366315
0.0364127
0.0361145
0.0357526
0.0354004
0.0350051
0.0347459
0.034531
0.0346259
0.0351674
0.0363271
0.0390036
0.0437249
0.0521654
0.0654147
0.0810857
0.0896665
0.0960241
0.098201
0.0977195
0.0971334
0.0954626
0.0919036
0.0865969
0.079888
0.0400503
0.0401127
0.0401772
0.0402436
0.0403127
0.040379
0.0404461
0.0405144
0.0405772
0.0406413
0.0406873
0.0407429
0.0407129
0.0407045
0.0406969
0.0406924
0.0406888
0.0406911
0.0407394
0.040703
0.0407371
0.0406498
0.0405948
0.040559
0.0405819
0.0404763
0.0404789
0.0403245
0.0402446
0.0402252
0.0400545
0.0400479
0.0399804
0.0398855
0.0397675
0.0396313
0.039478
0.039303
0.0391018
0.038861
0.038597
0.0383006
0.0379718
0.0376022
0.037191
0.0367512
0.0362275
0.0357585
0.0354261
0.0350859
0.0354966
0.0359923
0.0376454
0.0402965
0.0456653
0.0544725
0.0658956
0.0781116
0.0855784
0.0890109
0.0867722
0.0818844
0.0782904
0.0770695
0.0768484
0.07593
0.0733983
0.069103
0.0634011
0.0434097
0.0433978
0.0433825
0.0433736
0.0434091
0.0433287
0.0433096
0.0433433
0.0432425
0.0432043
0.0432113
0.0432034
0.0430417
0.04297
0.0429139
0.0429622
0.0429599
0.0429194
0.0428558
0.0427706
0.0426744
0.0425612
0.0424378
0.0423081
0.0421749
0.042031
0.0418851
0.0417293
0.0415725
0.0414142
0.0412466
0.0410799
0.0409045
0.0407166
0.0405095
0.0402664
0.0399917
0.0396627
0.0392703
0.038812
0.038316
0.0377631
0.0372193
0.0366415
0.0361091
0.0355779
0.0354107
0.0356126
0.0361064
0.0374367
0.0396369
0.0433171
0.0488242
0.0565746
0.0655771
0.0734696
0.0805838
0.081231
0.0766993
0.0684435
0.0623441
0.0594077
0.058935
0.0597986
0.0607633
0.0609137
0.0593818
0.0560039
0.0511427
0.0422809
0.0423223
0.042424
0.0423336
0.0424141
0.0424467
0.0424448
0.0424196
0.0423688
0.0423065
0.0422299
0.0421462
0.0420457
0.0419402
0.041826
0.0417061
0.0415746
0.0414283
0.0412685
0.0410931
0.0409033
0.0406996
0.0404829
0.0402511
0.0400065
0.0397432
0.0394676
0.0391661
0.0388447
0.0384989
0.0381345
0.0377404
0.037327
0.0368901
0.0364401
0.035984
0.0355272
0.0350692
0.0346837
0.0343513
0.0341547
0.0339553
0.0339999
0.0341504
0.0346612
0.0353733
0.0365649
0.0382709
0.0405889
0.0437381
0.0478641
0.0533637
0.0593483
0.0650775
0.0674253
0.0635582
0.0550561
0.0466704
0.0417033
0.0403511
0.0408216
0.0422596
0.0442966
0.0466861
0.0487726
0.0496163
0.0489703
0.0465447
0.0425999
0.0325115
0.0326899
0.0328748
0.0330501
0.0332247
0.0333923
0.0335522
0.0337071
0.033854
0.0339965
0.0341324
0.0342636
0.0343878
0.0345057
0.0346184
0.0347232
0.0348282
0.0349107
0.0350356
0.0350175
0.0350152
0.0350213
0.0351088
0.0351535
0.0351608
0.0351474
0.0351065
0.0351147
0.0349352
0.034863
0.0349182
0.034637
0.0344993
0.0343638
0.0344262
0.0341213
0.0339696
0.033207
0.0328261
0.0327621
0.0326367
0.0321902
0.0315225
0.0306426
0.0295347
0.0281561
0.026448
0.024322
0.0217043
0.0184167
0.0150992
0.0138026
0.0152831
0.0171158
0.017482
0.016767
0.0160525
0.0156421
0.0159676
0.0172261
0.0185798
0.0202827
0.0218824
0.0233064
0.0244262
0.0248981
0.0249326
0.0241512
0.0223669
0.00190302
0.00190423
0.00190584
0.00190739
0.00190906
0.00191255
0.00191669
0.00191995
0.00192167
0.00192245
0.00192371
0.00192545
0.00193005
0.00193712
0.00194111
0.00194083
0.0019451
0.00194871
0.0019512
0.00195508
0.00195613
0.00195871
0.00196016
0.00196368
0.0019682
0.00197266
0.00197803
0.00198166
0.00198116
0.00198272
0.00198394
0.00198824
0.00199218
0.00199316
0.00199427
0.00199358
0.00199244
0.00199231
0.00199181
0.0019929
0.00199077
0.00199135
0.00199038
0.00198647
0.00198535
0.00198321
0.00197997
0.0019732
0.00197031
0.00197171
0.00197377
0.00197582
0.00197564
0.0019746
0.00197302
0.0019698
0.00196815
0.00196752
0.00196689
0.0019116
0.00191334
0.00191551
0.00191785
0.00192123
0.00192413
0.00192586
0.00192659
0.00192618
0.00192769
0.0019298
0.0019343
0.00194108
0.00194447
0.00194576
0.00194652
0.00195227
0.00195517
0.0019578
0.00196054
0.00196166
0.00196402
0.00196618
0.00197005
0.00197431
0.00197873
0.00198422
0.0019876
0.00198714
0.00198849
0.00199017
0.00199399
0.00199805
0.00199923
0.00200088
0.0020007
0.00200007
0.00199961
0.00199939
0.00200026
0.00199968
0.00199981
0.00199937
0.00199809
0.00199594
0.00199422
0.001992
0.00198791
0.00198383
0.00198233
0.00198136
0.00198264
0.00198493
0.00198502
0.00198515
0.00198412
0.00198309
0.00198226
0.00198106
0.00192512
0.00192689
0.00192914
0.00193122
0.00193297
0.00193386
0.00193383
0.00193343
0.00193511
0.0019383
0.00194257
0.00194784
0.00195126
0.0019528
0.00195372
0.00195695
0.00196198
0.00196416
0.00196641
0.00196856
0.00196997
0.00197257
0.00197524
0.00197917
0.0019832
0.00198772
0.00199322
0.00199649
0.00199613
0.00199735
0.00199949
0.00200285
0.00200696
0.00200836
0.00201059
0.00201068
0.00201017
0.00200983
0.00201003
0.00201087
0.00201132
0.002011
0.00201095
0.00201043
0.00200985
0.00200827
0.00200718
0.00200527
0.00200166
0.00199897
0.00199696
0.00199614
0.0019959
0.00199728
0.00199742
0.00199738
0.00199795
0.00199721
0.00199723
0.00194064
0.00194201
0.00194338
0.00194319
0.00194411
0.00194452
0.00194565
0.00194772
0.00195107
0.0019551
0.0019591
0.00196207
0.00196359
0.00196467
0.00196692
0.00197164
0.00197489
0.0019764
0.00197837
0.00198032
0.00198217
0.00198506
0.00198805
0.00199186
0.0019957
0.00200041
0.00200587
0.00200903
0.00200879
0.00201006
0.00201251
0.00201551
0.00201977
0.0020215
0.00202416
0.00202527
0.00202515
0.00202515
0.00202511
0.00202655
0.00202659
0.00202718
0.0020268
0.00202665
0.00202633
0.00202616
0.00202516
0.0020236
0.00202275
0.00202101
0.00201895
0.00201799
0.00201539
0.00201515
0.00201497
0.00201525
0.0020164
0.00201597
0.00201567
0.00196078
0.00196077
0.00196011
0.00196114
0.00196124
0.00196306
0.00196552
0.00196857
0.00197189
0.00197496
0.00197725
0.00197853
0.00197967
0.00198166
0.00198539
0.00198924
0.00199111
0.00199223
0.00199407
0.00199612
0.00199841
0.0020015
0.00200467
0.00200828
0.00201201
0.00201695
0.00202234
0.00202539
0.00202534
0.00202671
0.0020294
0.00203204
0.00203642
0.00203845
0.00204135
0.00204336
0.00204404
0.0020437
0.00204401
0.00204566
0.00204705
0.00204695
0.00204748
0.00204747
0.00204735
0.00204705
0.00204648
0.00204678
0.0020447
0.00204411
0.00204403
0.00204173
0.00204126
0.00204092
0.00203892
0.00203865
0.00203857
0.002039
0.00203993
0.00198479
0.00198351
0.0019846
0.00198493
0.00198693
0.00198914
0.00199171
0.00199412
0.00199653
0.00199839
0.00199915
0.0020004
0.00200225
0.00200543
0.00200929
0.00201157
0.0020126
0.00201325
0.00201526
0.00201749
0.00202011
0.00202332
0.00202647
0.00202982
0.00203352
0.00203866
0.00204391
0.00204689
0.00204706
0.00204857
0.00205151
0.00205392
0.00205847
0.00206093
0.00206408
0.00206673
0.00206835
0.00206909
0.00206923
0.00207054
0.00207236
0.00207404
0.00207336
0.00207415
0.00207462
0.00207484
0.002075
0.00207477
0.00207496
0.00207366
0.00207368
0.00207232
0.00207208
0.00207292
0.00207105
0.00207244
0.00207135
0.00207145
0.0020713
0.00201701
0.00201691
0.00201712
0.00201737
0.00201952
0.0020212
0.00202306
0.0020253
0.00202713
0.00202728
0.00202712
0.0020291
0.00203187
0.00203558
0.00203794
0.00203883
0.00203884
0.00204001
0.00204215
0.00204468
0.00204756
0.00205068
0.00205379
0.00205687
0.00206062
0.00206597
0.00207108
0.00207401
0.00207445
0.00207612
0.00207927
0.00208142
0.00208598
0.00208879
0.00209216
0.00209531
0.00209768
0.00209944
0.00210023
0.00210158
0.00210358
0.0021058
0.00210727
0.00210726
0.00210716
0.00210692
0.00210661
0.00210633
0.00210743
0.00210578
0.00210641
0.00210544
0.00210615
0.00210649
0.00210664
0.00210595
0.00210781
0.00210791
0.00210947
0.00205688
0.00205658
0.00205668
0.00205703
0.00205695
0.00205924
0.00206183
0.00206382
0.00206392
0.00206331
0.00206468
0.00206725
0.00207071
0.00207329
0.00207436
0.00207443
0.00207391
0.00207489
0.00207739
0.00208011
0.00208296
0.00208595
0.00208876
0.00209164
0.00209549
0.00210098
0.00210591
0.00210883
0.00210954
0.00211142
0.00211483
0.00211696
0.00212163
0.00212497
0.00212866
0.00213232
0.00213545
0.00213809
0.00213964
0.00214125
0.00214355
0.00214631
0.00214877
0.00215073
0.00215231
0.00215355
0.0021546
0.00215541
0.00215666
0.00215731
0.00215837
0.00216028
0.00215763
0.0021562
0.00215597
0.00215504
0.00215672
0.00215918
0.00215751
0.0021127
0.00211229
0.00211206
0.00211178
0.00211172
0.00211107
0.00211145
0.00211114
0.002109
0.00211021
0.00211136
0.00211562
0.00211872
0.00211944
0.00211757
0.00211654
0.00211717
0.00211845
0.00212119
0.0021239
0.00212676
0.00212944
0.00213188
0.00213467
0.00213865
0.00214435
0.00214908
0.00215205
0.00215304
0.00215515
0.00215875
0.00216078
0.00216531
0.00216903
0.00217304
0.00217716
0.00218106
0.00218481
0.00218754
0.00218976
0.00219233
0.00219564
0.00219903
0.00220225
0.00220528
0.00220809
0.00221066
0.00221286
0.00221508
0.00221702
0.00221896
0.0022213
0.00222298
0.00222529
0.0022231
0.00222446
0.00222571
0.00222253
0.00222133
0.00217289
0.00217202
0.00217326
0.00217251
0.00216944
0.00217082
0.0021711
0.00217091
0.00216965
0.00217361
0.00217776
0.00217874
0.00217593
0.00217347
0.00217269
0.0021737
0.00217264
0.00217529
0.00217821
0.00218084
0.00218302
0.00218496
0.00218693
0.00218963
0.0021938
0.00219949
0.00220403
0.00220705
0.00220831
0.00221072
0.00221464
0.00221695
0.00222162
0.00222593
0.00223045
0.0022351
0.00223956
0.00224413
0.00224816
0.00225147
0.00225458
0.00225827
0.00226225
0.00226629
0.00227021
0.00227421
0.00227814
0.00228185
0.00228541
0.00228878
0.00229193
0.00229511
0.00229814
0.00230137
0.00230402
0.00230692
0.00230916
0.0023119
0.00231323
0.00225004
0.0022518
0.00224903
0.00225035
0.0022522
0.00225308
0.00225297
0.00225186
0.00224841
0.00224839
0.00224505
0.00224308
0.00224263
0.00224225
0.00224345
0.00224226
0.00224423
0.00224639
0.0022485
0.0022503
0.00225177
0.00225318
0.0022547
0.00225735
0.00226188
0.00226746
0.00227185
0.002275
0.00227657
0.00227929
0.00228341
0.0022858
0.00229029
0.00229492
0.00229997
0.0023054
0.00231074
0.00231626
0.00232166
0.00232659
0.00233103
0.00233579
0.00234084
0.00234606
0.00235107
0.00235608
0.00236108
0.00236596
0.00237071
0.00237536
0.00237984
0.00238428
0.00238858
0.00239306
0.00239726
0.00240185
0.00240563
0.00241039
0.00241373
0.00235316
0.0023521
0.00234757
0.00234957
0.00235145
0.00235043
0.00234327
0.00234255
0.00233942
0.00233812
0.0023401
0.00233899
0.00233452
0.00233309
0.00233489
0.00233544
0.00233682
0.00233729
0.0023381
0.00233908
0.00234017
0.0023408
0.00234188
0.00234449
0.00234914
0.00235433
0.00235859
0.00236183
0.00236369
0.00236681
0.00237136
0.00237441
0.0023793
0.00238456
0.00239023
0.00239634
0.00240247
0.00240878
0.00241521
0.00242145
0.00242721
0.00243313
0.00243933
0.00244597
0.00245261
0.00245922
0.00246575
0.00247214
0.00247831
0.0024843
0.00249007
0.00249576
0.00250125
0.00250691
0.00251228
0.00251813
0.00252316
0.00252938
0.00253403
0.0024787
0.00247207
0.00247248
0.00247144
0.00246931
0.00246498
0.00245993
0.00245546
0.00245681
0.00245698
0.00245077
0.00244907
0.00244708
0.00244723
0.00244954
0.00244897
0.00244575
0.00244861
0.00244974
0.00244966
0.0024479
0.00244883
0.00244996
0.0024526
0.00245701
0.00246187
0.00246619
0.00246957
0.0024718
0.00247537
0.00248015
0.00248344
0.00248828
0.00249391
0.0025004
0.00250769
0.00251523
0.00252308