/*--------------------------------*- C++ -*----------------------------------*\
| =========                 |                                                 |
| \\      /  F ield         | OpenFOAM: The Open Source CFD Toolbox           |
|  \\    /   O peration     | Version:  2312                                  |
|   \\  /    A nd           | Website:  www.openfoam.com                      |
|    \\/     M anipulation  |                                                 |
\*---------------------------------------------------------------------------*/
FoamFile
{
    version     2.0;
    format      ascii;
    arch        "LSB;label=32;scalar=64";
    class       volScalarField;
    location    "1200";
    object      nut;
}
// * * * * * * * * * * * * * * * * * * * * * * * * * * * * * * * * * * * * * //

dimensions      [0 2 -1 0 0 0 0];

internalField   nonuniform List<scalar> 
76025
(
0.00133689
0.00133718
0.00133817
0.00133843
0.00133918
0.00133939
0.00133932
0.00133975
0.0013404
0.00134142
0.0013426
0.00134419
0.00134586
0.00134717
0.00134848
0.00134778
0.00135007
0.00135039
0.00135101
0.0013517
0.00135257
0.00135382
0.00135496
0.00135676
0.00135724
0.00135836
0.00135883
0.00135987
0.00136162
0.00136334
0.00136526
0.00136747
0.00136861
0.00137087
0.00137473
0.00137874
0.00137947
0.00138415
0.00138806
0.00139503
0.00139828
0.00140508
0.00140793
0.001416
0.00141957
0.00143023
0.00143548
0.00144808
0.00145554
0.00146847
0.00147856
0.00149277
0.00150464
0.00151907
0.00153487
0.00154933
0.00156428
0.00158104
0.0016014
0.00163345
0.00166467
0.00171844
0.00176776
0.00185217
0.00193069
0.00203215
0.0021323
0.0022004
0.00233446
0.00134623
0.00134556
0.00134552
0.00134544
0.0013459
0.00134641
0.00134702
0.00134758
0.00134842
0.00134918
0.00135029
0.00135118
0.00135256
0.00135392
0.00135441
0.00135467
0.00135626
0.00135865
0.0013582
0.00136065
0.00136313
0.00136464
0.00136589
0.00136704
0.00136884
0.0013703
0.00137152
0.00137259
0.00137144
0.00137464
0.00137796
0.00138161
0.00138493
0.00138966
0.00139279
0.0014006
0.00140367
0.00140795
0.00141154
0.00141663
0.00142082
0.00142724
0.00143277
0.00144113
0.00144839
0.00145832
0.00146704
0.0014772
0.00148651
0.00149601
0.00150714
0.00151727
0.00153231
0.0015443
0.00156298
0.00157422
0.00159606
0.00161295
0.00164616
0.00168103
0.00172954
0.00179207
0.00185921
0.00196037
0.00204955
0.00216507
0.00227749
0.00234709
0.00248237
0.00135399
0.0013563
0.00135725
0.00135714
0.00135718
0.00135711
0.00135728
0.00135755
0.00135824
0.00135922
0.0013605
0.00136136
0.00136254
0.00136237
0.0013622
0.00136342
0.00136212
0.0013648
0.00136781
0.00137088
0.00137397
0.00137676
0.00137904
0.00138134
0.00138395
0.00138639
0.00139041
0.00139339
0.00139925
0.00140167
0.0014044
0.00140728
0.00140987
0.00141312
0.00141619
0.00142027
0.001424
0.00142893
0.00143326
0.00143943
0.00144465
0.00145274
0.00145884
0.00146885
0.0014754
0.00148634
0.00149267
0.00150328
0.00151002
0.0015214
0.00153162
0.00154537
0.00156041
0.00157655
0.00159475
0.00161141
0.00163552
0.00166103
0.00169953
0.00174444
0.00179821
0.00187336
0.00194908
0.00206236
0.00214323
0.00226943
0.0023504
0.00244154
0.00259301
0.00136604
0.00136556
0.00136702
0.00136846
0.00136918
0.0013699
0.0013721
0.00137382
0.00137442
0.00137408
0.00137358
0.00137638
0.00137567
0.00137597
0.00137668
0.00137695
0.00137974
0.00138385
0.00138636
0.0013919
0.00139378
0.00139927
0.00140314
0.0014046
0.00140639
0.00140853
0.00141107
0.00141372
0.00141685
0.00141981
0.00142295
0.00142619
0.00142976
0.00143364
0.00143787
0.00144259
0.00144755
0.00145313
0.00145881
0.00146549
0.00147205
0.00148022
0.00148707
0.00149637
0.00150268
0.00151246
0.00151826
0.00152897
0.00153642
0.0015499
0.00156119
0.00157777
0.00159402
0.00161324
0.00163336
0.00165615
0.00168602
0.0017201
0.00176543
0.00181828
0.00188255
0.00197059
0.00205163
0.00216918
0.00223852
0.00236962
0.00245002
0.00256673
0.00278994
0.00137883
0.00137723
0.00137891
0.0013772
0.00137838
0.00138091
0.00138277
0.00138143
0.00138243
0.00138235
0.00138226
0.00138169
0.00138425
0.00138673
0.00139007
0.00139299
0.00139647
0.00139997
0.00140493
0.00140845
0.00141553
0.00141993
0.00142124
0.00142327
0.00142591
0.00142889
0.00143197
0.00143515
0.00143855
0.00144192
0.00144572
0.00144963
0.00145401
0.00145853
0.00146342
0.00146841
0.00147355
0.00147896
0.00148451
0.00149085
0.0014972
0.0015048
0.00151131
0.00151988
0.00152589
0.00153579
0.00154226
0.00155515
0.00156395
0.00158113
0.00159341
0.00161562
0.00163257
0.00165892
0.0016804
0.00171391
0.00174505
0.00179091
0.00183788
0.0019072
0.00197783
0.00207762
0.00215239
0.00226809
0.00232673
0.00247821
0.00256045
0.00277091
0.00301572
0.00139229
0.00139572
0.00139847
0.00140123
0.0013994
0.00139879
0.00139927
0.00140236
0.00139903
0.00140261
0.00140681
0.00141304
0.00141597
0.00141891
0.00142204
0.00142605
0.00142974
0.00143394
0.00143469
0.00143544
0.00143748
0.00143969
0.00144185
0.0014442
0.00144668
0.00144958
0.00145265
0.00145617
0.00145979
0.00146382
0.00146799
0.00147261
0.00147729
0.00148227
0.00148727
0.00149247
0.00149774
0.00150342
0.00150919
0.00151575
0.00152215
0.00152965
0.00153626
0.00154473
0.00155177
0.00156249
0.00157122
0.00158617
0.00159797
0.00161876
0.00163476
0.00166219
0.001682
0.00171442
0.00173904
0.00178014
0.00181394
0.00187298
0.00192686
0.00201625
0.00208626
0.00219441
0.00225178
0.00237802
0.00243637
0.00263465
0.00274964
0.00306787
0.00328591
0.00140638
0.00140967
0.00141399
0.00141593
0.00141795
0.00142143
0.00142375
0.00142805
0.00143338
0.00143657
0.00143976
0.00143912
0.00144472
0.0014442
0.00144477
0.00144673
0.00144907
0.00145187
0.00145462
0.00145721
0.00145993
0.0014627
0.00146547
0.00146847
0.00147158
0.00147498
0.00147853
0.00148242
0.00148646
0.00149093
0.00149557
0.00150032
0.00150513
0.00150985
0.00151473
0.00151971
0.00152512
0.00153099
0.00153711
0.00154402
0.00155074
0.00155864
0.00156601
0.00157539
0.00158437
0.00159681
0.00160887
0.00162634
0.00164277
0.00166723
0.00168851
0.00171972
0.00174422
0.00178143
0.00181168
0.00186053
0.00190514
0.00198028
0.00204631
0.00214684
0.00221114
0.00232036
0.00237097
0.00252445
0.00260658
0.00287785
0.00303097
0.00342166
0.00360091
0.00142771
0.00143091
0.00143486
0.00144024
0.00144567
0.00144842
0.00145026
0.00145272
0.00145547
0.00145787
0.00146025
0.00146203
0.00146422
0.00146614
0.0014679
0.00146994
0.00147208
0.0014747
0.00147763
0.00148096
0.00148441
0.00148795
0.00149129
0.00149455
0.00149778
0.00150112
0.00150455
0.00150821
0.00151206
0.00151649
0.00152151
0.00152702
0.00153307
0.0015394
0.0015461
0.00155308
0.00156034
0.0015681
0.0015757
0.00158408
0.001592
0.00160118
0.00160983
0.0016209
0.001632
0.00164687
0.00166234
0.00168277
0.00170417
0.00173181
0.0017589
0.00179345
0.00182541
0.00186857
0.00191074
0.00197146
0.00203354
0.00212048
0.00219462
0.00229372
0.00235564
0.00247142
0.00254106
0.00274145
0.00287048
0.00321605
0.00338031
0.00381187
0.00389074
0.00146715
0.00147339
0.00147542
0.00147593
0.00147765
0.00147973
0.00148174
0.00148384
0.00148621
0.00148862
0.001491
0.00149323
0.00149535
0.00149749
0.00149954
0.00150163
0.00150376
0.00150607
0.0015086
0.00151165
0.0015151
0.00151909
0.00152341
0.00152794
0.00153255
0.00153721
0.00154194
0.0015465
0.0015511
0.00155585
0.00156101
0.00156649
0.00157276
0.00157972
0.00158758
0.00159613
0.00160495
0.00161422
0.00162289
0.0016324
0.00164132
0.00165203
0.00166257
0.00167642
0.00169078
0.0017095
0.0017292
0.00175398
0.00178105
0.00181374
0.00184881
0.00189045
0.00193403
0.00198743
0.00204446
0.00211557
0.00219069
0.00228049
0.00236158
0.0024595
0.00253977
0.00267613
0.00279754
0.00304883
0.00323384
0.00361248
0.0037612
0.00418705
0.00412194
0.00149848
0.00150067
0.001503
0.00150501
0.00150699
0.00150921
0.00151163
0.00151417
0.00151686
0.00151969
0.00152263
0.00152586
0.00152929
0.0015329
0.00153662
0.00154025
0.00154376
0.00154713
0.00155023
0.00155332
0.00155638
0.0015597
0.00156332
0.00156735
0.00157158
0.00157605
0.00158056
0.00158509
0.00158967
0.00159446
0.00159944
0.00160487
0.00161098
0.00161804
0.00162631
0.0016359
0.00164654
0.00165837
0.00167046
0.00168383
0.00169721
0.0017125
0.00172792
0.00174674
0.00176608
0.00178989
0.00181506
0.00184578
0.00188015
0.00191995
0.00196402
0.00201368
0.0020669
0.00212854
0.00219513
0.00227474
0.00236165
0.00246097
0.00255842
0.00267274
0.00279161
0.00296698
0.00315577
0.00344175
0.00366559
0.0040195
0.00414196
0.00449545
0.00428739
0.00153736
0.00153949
0.0015418
0.00154401
0.00154627
0.00154844
0.00155084
0.00155343
0.00155628
0.00155922
0.00156216
0.00156491
0.00156769
0.0015705
0.00157346
0.00157674
0.00158022
0.00158397
0.0015878
0.00159177
0.00159595
0.00160037
0.0016052
0.00161042
0.00161619
0.00162233
0.00162888
0.00163574
0.00164302
0.00165069
0.00165869
0.00166724
0.00167615
0.0016857
0.00169573
0.00170662
0.00171814
0.00173082
0.00174406
0.00175891
0.00177472
0.00179317
0.00181298
0.001837
0.00186229
0.00189298
0.00192523
0.00196356
0.00200482
0.00205051
0.00210048
0.00215514
0.00221499
0.00228432
0.00236169
0.00245618
0.00256145
0.00268191
0.00280698
0.00295806
0.00313002
0.00335623
0.00359809
0.00388539
0.00411052
0.00439867
0.00447064
0.0046939
0.00426168
0.00158279
0.00158581
0.00158904
0.00159209
0.00159508
0.00159791
0.0016007
0.00160352
0.00160645
0.00160968
0.00161331
0.00161725
0.00162141
0.00162563
0.00162959
0.00163339
0.00163705
0.00164084
0.00164491
0.00164954
0.00165497
0.0016612
0.00166823
0.00167566
0.00168342
0.00169111
0.00169874
0.00170643
0.00171418
0.00172222
0.00173073
0.0017399
0.00174993
0.00176098
0.00177322
0.00178673
0.00180144
0.0018175
0.00183439
0.00185305
0.0018733
0.00189657
0.00192205
0.00195207
0.00198394
0.00202146
0.00205956
0.00210354
0.00214822
0.002198
0.00225247
0.00231306
0.00238227
0.00246364
0.00255915
0.00267656
0.00281006
0.0029638
0.00313278
0.00333526
0.00356068
0.00381919
0.00407093
0.00431721
0.00450542
0.00470371
0.00467622
0.00466375
0.00403322
0.00163921
0.00164243
0.00164591
0.00164933
0.00165273
0.00165592
0.00165906
0.00166205
0.00166503
0.00166807
0.00167143
0.00167516
0.00167938
0.00168408
0.00168916
0.00169436
0.00169957
0.00170465
0.00170973
0.00171497
0.00172075
0.00172739
0.00173529
0.0017444
0.00175463
0.00176563
0.00177738
0.00178966
0.0018022
0.00181487
0.00182749
0.00184008
0.00185268
0.00186563
0.00187924
0.00189404
0.00191008
0.00192808
0.00194759
0.00196988
0.00199459
0.00202317
0.00205476
0.0020908
0.00212929
0.00217234
0.00221628
0.00226576
0.00231632
0.002374
0.00243695
0.00250863
0.0025928
0.00269449
0.00281824
0.00296824
0.00314023
0.00333693
0.00355416
0.00379642
0.00404294
0.0042884
0.00450295
0.00467664
0.00479995
0.00490022
0.00463675
0.00436425
0.00376434
0.00170965
0.00171337
0.00171722
0.00172103
0.00172485
0.00172856
0.00173216
0.0017358
0.00173936
0.00174312
0.001747
0.00175131
0.00175608
0.00176158
0.00176783
0.00177484
0.00178256
0.00179086
0.00179953
0.00180838
0.00181701
0.00182533
0.00183319
0.00184098
0.0018488
0.00185728
0.00186668
0.00187711
0.00188879
0.00190178
0.00191598
0.0019314
0.00194774
0.00196515
0.00198354
0.00200334
0.00202441
0.00204791
0.00207315
0.0021017
0.00213287
0.00216883
0.00220884
0.00225389
0.00230295
0.00235536
0.00241041
0.00246889
0.00253069
0.00259975
0.00267695
0.00276849
0.00287988
0.0030168
0.00318096
0.00337163
0.00358425
0.0038162
0.00405661
0.00429724
0.00451421
0.00470427
0.00484633
0.00492662
0.0049642
0.00493131
0.00421741
0.00391088
0.00333867
0.00179393
0.00179853
0.0018033
0.00180806
0.0018129
0.00181777
0.00182265
0.00182758
0.00183263
0.00183782
0.00184331
0.001849
0.00185519
0.00186178
0.00186912
0.00187697
0.00188548
0.00189455
0.00190397
0.0019137
0.00192342
0.00193309
0.00194258
0.00195208
0.00196184
0.00197223
0.00198342
0.00199571
0.00200924
0.00202432
0.00204069
0.00205882
0.00207839
0.00209981
0.00212323
0.00214886
0.00217703
0.00220852
0.00224282
0.00228093
0.00232305
0.0023714
0.00242542
0.002485
0.0025485
0.00261443
0.00268366
0.00275661
0.00283729
0.00292856
0.00303543
0.00316342
0.00331613
0.00349473
0.00369563
0.00391365
0.00414052
0.00436651
0.00457697
0.00476297
0.00490551
0.00501011
0.00505388
0.00502971
0.00494269
0.00468902
0.00366465
0.00347246
0.00339718
0.00190219
0.00190738
0.00191284
0.0019184
0.00192416
0.00193011
0.00193626
0.00194261
0.00194919
0.00195604
0.00196325
0.0019707
0.00197864
0.00198687
0.0019957
0.00200495
0.00201469
0.00202486
0.00203537
0.00204621
0.00205723
0.0020682
0.00207923
0.00209052
0.00210234
0.00211508
0.0021292
0.00214535
0.00216351
0.00218431
0.00220698
0.00223224
0.00225928
0.00228867
0.0023204
0.00235457
0.00239199
0.00243298
0.00247769
0.00252694
0.00258236
0.00264517
0.00271544
0.00279227
0.00287479
0.00296332
0.00305884
0.00316376
0.00328027
0.00341133
0.00355937
0.00372562
0.00390876
0.00410497
0.00430781
0.00450871
0.00469757
0.00486383
0.00499872
0.00509612
0.00514316
0.00514722
0.00508884
0.00494172
0.00463697
0.00422593
0.00335574
0.00330362
0.00377003
0.00204286
0.00204933
0.00205604
0.00206288
0.00206992
0.00207721
0.00208475
0.00209258
0.00210071
0.00210917
0.00211804
0.00212724
0.00213696
0.00214707
0.00215779
0.00216905
0.00218095
0.00219346
0.0022067
0.00222059
0.00223545
0.00225125
0.00226823
0.00228619
0.00230544
0.00232617
0.00234877
0.00237338
0.00240019
0.00242922
0.00246043
0.00249382
0.00252951
0.00256762
0.00260866
0.00265306
0.00270161
0.00275516
0.00281453
0.00288082
0.00295492
0.0030384
0.00313096
0.00323294
0.00334429
0.00346497
0.00359497
0.0037341
0.0038821
0.00403859
0.00420249
0.00437153
0.00454177
0.00470769
0.00486271
0.00499944
0.0051119
0.00519206
0.00523768
0.00523797
0.00518978
0.0050885
0.00494876
0.00456478
0.00428093
0.00361803
0.00318487
0.00349801
0.00449517
0.00223102
0.00224003
0.00224932
0.00225877
0.00226845
0.0022784
0.00228865
0.0022992
0.00231009
0.00232135
0.00233303
0.00234515
0.0023578
0.00237105
0.00238498
0.00239975
0.00241542
0.00243223
0.0024505
0.00247029
0.0024919
0.00251521
0.00254047
0.0025678
0.0025974
0.00262937
0.00266383
0.00270077
0.00274024
0.00278211
0.0028265
0.00287336
0.00292311
0.00297601
0.0030328
0.00309412
0.00316083
0.00323388
0.00331396
0.00340203
0.00349811
0.00360319
0.00371662
0.00383873
0.00396744
0.00410177
0.00424064
0.00438227
0.00452483
0.00466621
0.00480374
0.00493416
0.00505354
0.0051574
0.00524127
0.00529977
0.00532946
0.0053216
0.00527934
0.00518093
0.00504663
0.00483184
0.00461976
0.00383381
0.0038415
0.00289169
0.0033373
0.0040919
0.00520392
0.00246819
0.00248182
0.00249609
0.00251086
0.00252622
0.00254221
0.00255884
0.00257614
0.00259414
0.00261288
0.00263241
0.00265284
0.00267414
0.00269669
0.00272063
0.00274608
0.00277319
0.00280209
0.00283285
0.00286569
0.00290085
0.00293851
0.00297879
0.00302187
0.00306789
0.00311687
0.00316872
0.00322336
0.00328072
0.00334066
0.00340313
0.00346811
0.00353566
0.00360593
0.00367923
0.00375598
0.00383662
0.00392161
0.00401126
0.00410575
0.00420484
0.00430817
0.00441474
0.00452459
0.00463629
0.00474877
0.00486025
0.00496768
0.00506944
0.00516321
0.00524637
0.00531606
0.00536904
0.00540169
0.00541023
0.00538967
0.00533722
0.00524332
0.0051161
0.00492031
0.00471725
0.00434435
0.00403005
0.0031486
0.00313625
0.00269542
0.00371968
0.00474458
0.00555481
0.00284162
0.00286163
0.0028828
0.00290505
0.00292855
0.00295337
0.00297968
0.00300781
0.00303781
0.00306975
0.00310365
0.00313966
0.00317757
0.00321741
0.00325927
0.0033032
0.00334926
0.00339751
0.00344792
0.00350068
0.0035554
0.00361192
0.00367027
0.00373039
0.00379219
0.00385558
0.0039205
0.00398678
0.00405426
0.00412274
0.0041921
0.00426222
0.00433299
0.00440434
0.00447629
0.00454887
0.00462212
0.00469605
0.00477058
0.00484553
0.00492049
0.00499493
0.00506805
0.0051389
0.00520635
0.0052703
0.00532948
0.00538261
0.00542788
0.00546207
0.00548287
0.00548742
0.00547249
0.00543423
0.00536806
0.00526982
0.00513594
0.00495999
0.00474839
0.00446514
0.00419337
0.00369371
0.00336873
0.0027284
0.00276584
0.00314185
0.00423645
0.00515632
0.00564248
0.00338412
0.00342156
0.00346106
0.00350244
0.00354558
0.00359039
0.00363684
0.00368492
0.00373462
0.00378585
0.0038386
0.00389275
0.00394736
0.00400241
0.00405789
0.00411376
0.00417
0.00422658
0.00428349
0.00434062
0.00439819
0.00445626
0.00451471
0.00457344
0.00463231
0.00469118
0.00474989
0.00480828
0.00486615
0.00492332
0.00497963
0.00503489
0.00508894
0.0051416
0.00519274
0.00524221
0.00528985
0.00533548
0.00537885
0.00541966
0.00545747
0.00549176
0.00552189
0.00554705
0.00556647
0.00557844
0.00558328
0.00558004
0.00556724
0.00554343
0.00550421
0.00544535
0.00536394
0.00525426
0.00511102
0.00493543
0.0047191
0.00446907
0.00417091
0.00382889
0.00346529
0.00300314
0.00277911
0.00252998
0.00294935
0.00379433
0.00467324
0.00527372
0.00580872
0.00422606
0.00426718
0.00430901
0.0043514
0.0043944
0.00443797
0.00448208
0.00452668
0.00457173
0.00461718
0.00466298
0.00470914
0.00475609
0.00480367
0.00485172
0.00490008
0.00494859
0.00499711
0.00504549
0.00509358
0.00514124
0.00518835
0.00523476
0.00528033
0.00532489
0.00536829
0.00541034
0.00545085
0.0054896
0.0055264
0.00556104
0.0055933
0.00562295
0.00564978
0.00567358
0.00569412
0.00571117
0.00572446
0.00573369
0.0057385
0.00573842
0.00573301
0.00572175
0.00570399
0.00567876
0.00564513
0.00560043
0.00554669
0.00548162
0.00540391
0.00530632
0.00518197
0.00503267
0.00484399
0.00461822
0.00437242
0.0040756
0.00377502
0.00340032
0.00304931
0.00267307
0.00242887
0.00239053
0.00266741
0.00335551
0.00410838
0.00480574
0.00529333
0.0057801
0.00497937
0.00500149
0.0050258
0.00505197
0.00507988
0.00510936
0.00514023
0.0051723
0.0052054
0.00523936
0.005274
0.00530916
0.00534471
0.00538048
0.00541632
0.00545207
0.00548755
0.0055226
0.00555703
0.00559067
0.00562335
0.00565486
0.00568502
0.00571363
0.00574052
0.00576546
0.00578825
0.00580865
0.00582645
0.00584138
0.0058532
0.00586168
0.00586654
0.00586758
0.00586446
0.00585696
0.00584484
0.00582781
0.00580556
0.00577761
0.00574339
0.00570293
0.00565585
0.0056011
0.00553764
0.00546325
0.00537408
0.00527852
0.005167
0.00503695
0.00487207
0.00466385
0.00442714
0.00416316
0.00386513
0.00359235
0.00322371
0.00295115
0.00253865
0.00227706
0.00208586
0.00211322
0.00241988
0.00304671
0.00363417
0.0043133
0.00476394
0.00523431
0.00554895
0.00543806
0.0054441
0.00545265
0.00546342
0.00547628
0.00549103
0.00550744
0.0055253
0.00554439
0.00556449
0.00558534
0.00560674
0.0056284
0.00565007
0.00567153
0.00569258
0.00571302
0.00573266
0.00575137
0.0057689
0.00578511
0.00579969
0.00581245
0.00582323
0.00583191
0.00583813
0.00584178
0.00584236
0.00584004
0.00583335
0.00582314
0.00580925
0.00579114
0.00576895
0.00574111
0.00570841
0.00567066
0.00562751
0.00557856
0.00552285
0.00545972
0.00539193
0.00531754
0.00523256
0.00513721
0.00502263
0.00489386
0.00472023
0.00452456
0.00430596
0.00405502
0.00378554
0.00351166
0.00321671
0.00290877
0.00264039
0.00229344
0.00207044
0.00185754
0.00181364
0.00198243
0.00236895
0.00276322
0.00325809
0.00375735
0.00423837
0.00466113
0.00497915
0.00510921
0.00550609
0.00550382
0.00550317
0.00550398
0.00550624
0.00550976
0.00551441
0.00552007
0.00552649
0.00553358
0.00554075
0.00554824
0.00555457
0.00556012
0.00556492
0.00556897
0.00557222
0.00557456
0.00557676
0.00557708
0.00557681
0.00557352
0.00556823
0.0055613
0.00555342
0.0055418
0.00552867
0.00551047
0.00549137
0.00545582
0.00542831
0.00539921
0.00536448
0.00532668
0.00527211
0.00521862
0.00516115
0.00509861
0.00502975
0.00495239
0.00486237
0.0047581
0.00464924
0.00450021
0.00435446
0.00417797
0.00398045
0.00375972
0.00352847
0.00327122
0.0030207
0.00274347
0.00249089
0.00222099
0.00199452
0.00177323
0.00165037
0.00160746
0.00171764
0.001996
0.00223314
0.00259091
0.00291614
0.00332895
0.00375033
0.00411089
0.004401
0.00457306
0.00453433
0.00510772
0.00509951
0.00509208
0.00508543
0.00507997
0.00507424
0.00506902
0.00506481
0.00505981
0.00505566
0.0050481
0.00504354
0.00501849
0.00499957
0.00498159
0.00496514
0.00494967
0.00493634
0.00493477
0.00491307
0.00490896
0.00487595
0.00485094
0.00483048
0.00482408
0.00478669
0.00477469
0.00472487
0.00469174
0.00467162
0.0046144
0.00459267
0.00455382
0.00450495
0.00444641
0.0043787
0.00430158
0.00421372
0.00411399
0.00399981
0.00387498
0.00373777
0.00358936
0.00342586
0.00325185
0.00306119
0.00285718
0.00263016
0.00239934
0.00214433
0.00195661
0.00173609
0.00158555
0.00144828
0.00140874
0.00139798
0.0015082
0.00170501
0.00191839
0.00214029
0.00234377
0.00268719
0.00301958
0.00333934
0.00363286
0.0038784
0.00405053
0.00409841
0.00394869
0.00403323
0.00401691
0.00400081
0.00398691
0.00398227
0.00395722
0.00394402
0.00394124
0.00391507
0.00390105
0.00389615
0.00388893
0.00385451
0.00383642
0.00382146
0.00382549
0.00382081
0.00380959
0.00379446
0.00377564
0.00375491
0.00373111
0.00370542
0.00367849
0.00365011
0.00361957
0.00358782
0.00355225
0.0035146
0.00347298
0.00342666
0.00337666
0.00332104
0.00325916
0.00319007
0.00311113
0.00302376
0.00292457
0.0028123
0.0026876
0.00255519
0.00241268
0.00226907
0.00211536
0.00196354
0.00180482
0.00165085
0.00145916
0.00130079
0.00119543
0.00112763
0.00110325
0.00112232
0.00118634
0.00128775
0.00142495
0.00163136
0.00175459
0.00193798
0.00218943
0.0024281
0.00266453
0.00293675
0.00319182
0.00340214
0.0035728
0.00366246
0.00363332
0.00344221
0.00218531
0.00218208
0.00218501
0.00216853
0.00217004
0.00216714
0.0021619
0.00215289
0.00214985
0.00214378
0.00213602
0.00212745
0.00211718
0.00210652
0.00209512
0.00208331
0.00207052
0.00205649
0.00204135
0.00202492
0.00200764
0.00198917
0.00197012
0.00194974
0.00192376
0.00190452
0.00187645
0.0018409
0.00180261
0.00175671
0.00170869
0.00165494
0.00159652
0.00153426
0.00147015
0.00140332
0.0013375
0.00126838
0.00119986
0.00113261
0.00107229
0.00101004
0.000958782
0.000909436
0.000872213
0.000838532
0.000818719
0.000831177
0.000851889
0.000883489
0.000929992
0.000992846
0.00107066
0.00115515
0.00126965
0.001314
0.0014028
0.00140121
0.00143192
0.00160675
0.00185084
0.0020976
0.00231459
0.00251153
0.00268478
0.00276871
0.00279661
0.00273827
0.00260388
0.000403399
0.00040487
0.000406508
0.000408053
0.000409687
0.000411325
0.000412886
0.000414448
0.000415947
0.000417429
0.000418913
0.000420371
0.000421817
0.000423214
0.000424617
0.000425954
0.00042742
0.000428448
0.000430652
0.000429242
0.000430061
0.000429401
0.00043329
0.000435666
0.000437014
0.000438143
0.000438534
0.000440491
0.000437687
0.000434955
0.000441423
0.000437189
0.000434508
0.00043234
0.000440383
0.00043585
0.0004452
0.000432338
0.000422974
0.000424699
0.000429489
0.00042931
0.000426428
0.00042115
0.000413524
0.000403087
0.000389171
0.000370682
0.000346868
0.000313978
0.000286352
0.000292126
0.000321613
0.000333655
0.000326302
0.0003129
0.000305722
0.000303832
0.000317364
0.000330254
0.000346487
0.00036457
0.000382912
0.000400603
0.000418842
0.000430593
0.00044021
0.000443527
0.000441842
0.00131284
0.00131232
0.00131225
0.00131194
0.00131194
0.00131304
0.00131349
0.0013132
0.00131188
0.00130999
0.00130821
0.00130755
0.00130635
0.00130654
0.00130485
0.00130217
0.00130238
0.00130133
0.00130257
0.00130406
0.00130616
0.00130937
0.00131066
0.00131147
0.00131267
0.00131416
0.00131753
0.00132208
0.00132445
0.00132488
0.00132362
0.00132392
0.00132397
0.00132619
0.00132755
0.00132956
0.00132851
0.00132926
0.00133145
0.00133285
0.00133076
0.00133189
0.00133161
0.00132971
0.00133184
0.00133186
0.00133071
0.00132778
0.00133253
0.00133452
0.00133554
0.00133691
0.00133698
0.00133648
0.0013372
0.00133672
0.00133663
0.00133674
0.0013365
0.00131751
0.00131772
0.00131813
0.00131835
0.00131884
0.00131863
0.00131811
0.00131663
0.00131399
0.00131294
0.00131195
0.0013127
0.00131162
0.00131005
0.00130803
0.00130621
0.00130779
0.00130758
0.00130883
0.00131001
0.00131222
0.00131507
0.00131701
0.00131784
0.00131894
0.00132034
0.0013243
0.00132831
0.00133052
0.00133088
0.00132996
0.00133009
0.00133018
0.00133202
0.00133367
0.00133498
0.00133536
0.00133545
0.00133758
0.0013396
0.00133833
0.00133893
0.00133869
0.00133833
0.00133837
0.0013392
0.00133905
0.00133743
0.00133771
0.00134147
0.00134215
0.00134283
0.0013449
0.00134513
0.00134536
0.00134635
0.0013454
0.00134582
0.0013462
0.00132387
0.00132391
0.00132418
0.00132441
0.00132425
0.00132369
0.00132216
0.00131975
0.00131929
0.0013193
0.00131934
0.00131805
0.00131621
0.00131497
0.00131377
0.00131424
0.00131465
0.00131487
0.00131584
0.00131775
0.00131947
0.00132289
0.0013242
0.00132509
0.00132598
0.00132741
0.00133146
0.00133526
0.001338
0.00133825
0.00133781
0.00133781
0.00133803
0.00133929
0.00134127
0.00134182
0.00134178
0.00134234
0.00134363
0.00134693
0.0013468
0.00134674
0.00134677
0.00134658
0.00134671
0.00134683
0.00134742
0.0013483
0.00134811
0.00134919
0.00135044
0.00135113
0.00135109
0.00135403
0.00135412
0.00135443
0.00135545
0.00135438
0.00135461
0.00133084
0.00133106
0.0013311
0.00132957
0.00132942
0.00132868
0.00132806
0.00132763
0.00132753
0.00132701
0.00132609
0.00132422
0.00132306
0.00132229
0.00132215
0.00132302
0.00132321
0.00132343
0.00132484
0.00132703
0.0013293
0.00133181
0.00133297
0.00133355
0.00133447
0.0013361
0.0013407
0.00134401
0.00134627
0.00134688
0.00134642
0.00134674
0.00134694
0.00134777
0.00134998
0.00135141
0.00135173
0.00135243
0.00135326
0.00135675
0.00135646
0.0013573
0.00135686
0.00135678
0.00135674
0.00135705
0.00135797
0.00135672
0.00135847
0.00136001
0.00136159
0.00136361
0.00136198
0.00136235
0.00136419
0.00136525
0.00136696
0.00136495
0.00136564
0.00134244
0.00134134
0.00133907
0.0013393
0.0013375
0.00133752
0.00133722
0.00133683
0.00133609
0.00133503
0.00133378
0.00133242
0.00133203
0.00133183
0.00133245
0.00133286
0.00133318
0.00133377
0.00133531
0.00133763
0.00133967
0.00134187
0.00134285
0.00134333
0.00134426
0.00134615
0.00135077
0.00135381
0.00135605
0.00135678
0.0013565
0.00135665
0.00135697
0.00135751
0.00135938
0.00136194
0.00136291
0.00136299
0.00136386
0.00136698
0.0013678
0.00136796
0.00136835
0.0013683
0.00136834
0.00136835
0.00136875
0.00136989
0.00136725
0.00136941
0.00137035
0.00136987
0.00137206
0.00137366
0.00137257
0.00137359
0.00137369
0.00137626
0.00137724
0.00135307
0.00135111
0.00135052
0.00134913
0.00134891
0.00134859
0.00134802
0.00134713
0.00134642
0.00134573
0.00134438
0.00134408
0.0013441
0.00134444
0.00134506
0.00134556
0.00134595
0.00134635
0.00134813
0.00135029
0.00135211
0.00135403
0.00135466
0.00135512
0.00135604
0.00135818
0.00136271
0.00136552
0.00136774
0.0013686
0.00136852
0.00136864
0.00136911
0.00136962
0.00137137
0.00137377
0.00137559
0.00137732
0.00137726
0.00137911
0.00138081
0.00138243
0.00138169
0.00138198
0.00138311
0.00138263
0.00138425
0.00138346
0.00138606
0.00138502
0.00138508
0.00138522
0.00138598
0.00139062
0.00138922
0.00138975
0.00138826
0.00138867
0.00138957
0.00136715
0.00136667
0.00136433
0.00136244
0.00136238
0.00136178
0.00136118
0.00136156
0.00136173
0.00136007
0.00135797
0.00135829
0.00135885
0.00135971
0.00135997
0.00135965
0.0013591
0.00136119
0.00136278
0.0013648
0.0013665
0.0013679
0.00136851
0.0013689
0.00136985
0.00137237
0.00137675
0.00137938
0.00138162
0.00138261
0.00138264
0.00138262
0.00138297
0.00138332
0.00138497
0.00138718
0.00138921
0.00139131
0.00139217
0.00139366
0.00139545
0.00139709
0.00139903
0.00139786
0.0013972
0.00139691
0.00139666
0.00139551
0.00139641
0.00139568
0.00139685
0.00139505
0.00139737
0.00139836
0.00139899
0.00140069
0.00140358
0.00140308
0.00140499
0.00138289
0.00138283
0.0013801
0.00137929
0.00137679
0.00137785
0.00137959
0.00138056
0.00137896
0.0013764
0.00137622
0.00137712
0.00137815
0.00137819
0.00137757
0.00137736
0.00137814
0.00137936
0.00138079
0.00138261
0.00138394
0.00138509
0.00138531
0.00138572
0.00138669
0.00138951
0.00139365
0.00139614
0.00139837
0.00139949
0.00139971
0.00139981
0.00140026
0.0014007
0.0014024
0.00140466
0.00140689
0.00140909
0.00141039
0.00141185
0.0014137
0.0014157
0.00141764
0.00142024
0.00142233
0.0014241
0.00142578
0.00142707
0.00142891
0.00143042
0.00143193
0.0014343
0.00143073
0.00142713
0.0014247
0.00142501
0.00142779
0.00143004
0.00142826
0.00141055
0.00140987
0.00140787
0.00140714
0.00140643
0.00140655
0.00140445
0.00140261
0.00139841
0.00139861
0.00139794
0.00139955
0.00139989
0.0013993
0.00139852
0.00139768
0.00139918
0.0013995
0.00140115
0.00140301
0.00140427
0.00140484
0.00140494
0.00140546
0.00140644
0.00140972
0.00141359
0.00141601
0.00141828
0.0014195
0.00141977
0.00141977
0.00141992
0.00142018
0.00142177
0.00142401
0.00142651
0.00142918
0.00143109
0.00143268
0.00143443
0.00143663
0.00143894
0.00144141
0.00144372
0.00144588
0.00144786
0.00144958
0.00145154
0.00145226
0.00145778
0.00146221
0.00146132
0.00146673
0.00146198
0.00146495
0.00146579
0.00146457
0.00146096
0.00143004
0.00142935
0.00143264
0.00143093
0.00142626
0.00142891
0.00142823
0.00142895
0.00142519
0.00142918
0.00142917
0.0014285
0.00142656
0.00142409
0.00142288
0.0014248
0.00142356
0.00142568
0.00142833
0.00142957
0.00142969
0.00142952
0.00142944
0.00142992
0.00143093
0.00143445
0.00143798
0.00144033
0.00144256
0.00144392
0.0014444
0.00144477
0.00144514
0.00144557
0.00144723
0.00144952
0.00145202
0.00145487
0.00145737
0.00145939
0.00146114
0.00146326
0.00146542
0.00146786
0.00147021
0.00147276
0.00147524
0.00147754
0.0014798
0.00148162
0.00148357
0.00148606
0.00148766
0.00149019
0.00149211
0.00149403
0.00149578
0.00149741
0.00149789
0.00145995
0.00146301
0.00146036
0.0014655
0.00146578
0.00146474
0.00146346
0.00146233
0.00145843
0.00145591
0.00145426
0.00145262
0.0014516
0.0014544
0.00145542
0.00145282
0.0014551
0.00145669
0.00145796
0.00145833
0.00145823
0.00145813
0.00145806
0.00145841
0.0014599
0.00146356
0.00146677
0.00146921
0.00147142
0.0014729
0.00147337
0.00147362
0.00147362
0.00147376
0.00147528
0.00147775
0.00148058
0.00148374
0.0014869
0.00148976
0.00149214
0.00149482
0.00149741
0.00150015
0.00150267
0.0015053
0.00150804
0.00151073
0.00151332
0.00151578
0.00151802
0.00152022
0.00152221
0.0015244
0.00152673
0.00152913
0.00153141
0.00153398
0.00153578
0.00150757
0.00150483
0.00150182
0.0015012
0.0015043
0.00150461
0.00150232
0.00150112
0.00149772
0.00149527
0.00149706
0.00149389
0.00149319