/*--------------------------------*- C++ -*----------------------------------*\
| =========                 |                                                 |
| \\      /  F ield         | OpenFOAM: The Open Source CFD Toolbox           |
|  \\    /   O peration     | Version:  2312                                  |
|   \\  /    A nd           | Website:  www.openfoam.com                      |
|    \\/     M anipulation  |                                                 |
\*---------------------------------------------------------------------------*/
FoamFile
{
    version     2.0;
    format      ascii;
    arch        "LSB;label=32;scalar=64";
    class       volScalarField;
    location    "1200";
    object      p;
}
// * * * * * * * * * * * * * * * * * * * * * * * * * * * * * * * * * * * * * //

dimensions      [0 2 -2 0 0 0 0];

internalField   nonuniform List<scalar> 
76025
(
0.0557523
0.051505
0.0471402
0.042842
0.0385225
0.0341893
0.0296341
0.0252921
0.0208544
0.0164977
0.0120466
0.00755115
0.00303073
-0.00146598
-0.0059633
-0.0104686
-0.0148594
-0.019296
-0.0236984
-0.0279386
-0.0321311
-0.0364153
-0.0406328
-0.0447513
-0.0488317
-0.0528178
-0.0568391
-0.0608551
-0.0645828
-0.0684242
-0.0718551
-0.0754305
-0.0791758
-0.0828018
-0.0862516
-0.0894861
-0.0925978
-0.0958529
-0.099057
-0.102183
-0.105018
-0.107761
-0.110731
-0.113742
-0.116508
-0.119187
-0.121953
-0.125022
-0.127837
-0.130706
-0.13368
-0.136661
-0.139919
-0.143507
-0.147244
-0.151077
-0.155422
-0.16015
-0.165275
-0.170699
-0.17646
-0.183404
-0.191352
-0.19981
-0.209241
-0.220326
-0.232353
-0.246406
-0.264327
0.0556647
0.0511444
0.0465961
0.0420746
0.0375331
0.0329335
0.0283379
0.0237459
0.0191076
0.0144481
0.00974917
0.00506204
0.000392656
-0.00426508
-0.00889732
-0.0134862
-0.0180853
-0.0226063
-0.0271223
-0.0315221
-0.0359486
-0.0403011
-0.04459
-0.0488162
-0.053003
-0.057131
-0.06119
-0.065093
-0.0688984
-0.0726454
-0.076297
-0.080011
-0.083624
-0.0870543
-0.0904363
-0.0937238
-0.096991
-0.100141
-0.103171
-0.10615
-0.108975
-0.111761
-0.114493
-0.117165
-0.119807
-0.122443
-0.125113
-0.127829
-0.130541
-0.133301
-0.13614
-0.139063
-0.142164
-0.145482
-0.148998
-0.152799
-0.156985
-0.161533
-0.166456
-0.171814
-0.177787
-0.184708
-0.192479
-0.20111
-0.210867
-0.222147
-0.234834
-0.249451
-0.266636
0.0558454
0.0510998
0.0463186
0.0415558
0.0367814
0.0319974
0.0271901
0.0223508
0.0174882
0.0126054
0.00772236
0.00285708
-0.00198841
-0.00681024
-0.0116008
-0.0163765
-0.0211182
-0.0258163
-0.030462
-0.0350608
-0.0396022
-0.044068
-0.0484675
-0.0528015
-0.0570629
-0.0612403
-0.065307
-0.0692726
-0.0731573
-0.0769572
-0.0806866
-0.0843336
-0.0878602
-0.0912893
-0.0946549
-0.0979351
-0.101107
-0.104146
-0.107078
-0.109922
-0.112659
-0.11531
-0.117894
-0.120449
-0.12298
-0.125483
-0.127972
-0.130482
-0.133023
-0.135599
-0.138242
-0.140989
-0.14389
-0.146997
-0.150342
-0.153964
-0.157918
-0.162264
-0.167049
-0.172359
-0.178319
-0.185105
-0.192821
-0.201573
-0.211545
-0.223016
-0.236152
-0.251384
-0.268897
0.0559491
0.0509569
0.0459228
0.0409155
0.0359105
0.0308863
0.0258319
0.0207522
0.0156616
0.0105698
0.00548587
0.00041513
-0.004638
-0.00966855
-0.0146698
-0.019637
-0.0245589
-0.0294287
-0.0342386
-0.0389848
-0.0436591
-0.0482578
-0.0527773
-0.0572118
-0.0615537
-0.0657981
-0.0699415
-0.073985
-0.0779259
-0.0817617
-0.0854911
-0.0891125
-0.0926315
-0.0960542
-0.0993802
-0.102593
-0.105673
-0.108617
-0.111438
-0.114145
-0.116746
-0.119254
-0.121691
-0.124075
-0.126411
-0.128711
-0.130994
-0.133287
-0.135607
-0.137967
-0.140398
-0.142934
-0.145617
-0.148491
-0.151598
-0.154982
-0.158702
-0.162826
-0.167418
-0.172567
-0.178395
-0.185056
-0.192691
-0.201444
-0.211512
-0.223167
-0.236659
-0.252367
-0.270381
0.0557468
0.0504845
0.045181
0.0399106
0.0346481
0.029367
0.0240598
0.0187335
0.0134007
0.00807214
0.00275497
-0.00254529
-0.00782204
-0.0130679
-0.0182747
-0.0234339
-0.0285382
-0.0335798
-0.0385518
-0.0434473
-0.0482605
-0.0529858
-0.0576168
-0.0621477
-0.0665735
-0.0708901
-0.0750935
-0.0791782
-0.083141
-0.0869811
-0.0906992
-0.0942982
-0.0977805
-0.101145
-0.104388
-0.107499
-0.110465
-0.113282
-0.115959
-0.118509
-0.120947
-0.123287
-0.125543
-0.127731
-0.129862
-0.131952
-0.134017
-0.136081
-0.138161
-0.140279
-0.142462
-0.144744
-0.147164
-0.149766
-0.152595
-0.155703
-0.159147
-0.162999
-0.167335
-0.172253
-0.177874
-0.184345
-0.191824
-0.200492
-0.210572
-0.222352
-0.236131
-0.252291
-0.271055
0.0552715
0.0497205
0.0441309
0.038581
0.0330441
0.027493
0.0219198
0.0163311
0.0107402
0.00515894
-0.000404122
-0.00594209
-0.0114475
-0.0169121
-0.0223275
-0.0276853
-0.0329775
-0.0381962
-0.0433336
-0.0483824
-0.0533355
-0.058186
-0.0629272
-0.0675534
-0.0720591
-0.076439
-0.080688
-0.0848017
-0.0887782
-0.0926168
-0.0963174
-0.0998807
-0.103307
-0.106598
-0.109752
-0.112755
-0.115596
-0.118273
-0.120795
-0.123176
-0.125432
-0.127578
-0.129628
-0.131597
-0.133497
-0.135343
-0.137154
-0.13895
-0.140754
-0.142589
-0.144482
-0.146468
-0.148585
-0.150875
-0.153385
-0.156167
-0.159283
-0.162806
-0.16682
-0.171427
-0.176751
-0.182944
-0.19018
-0.198668
-0.208662
-0.220479
-0.234456
-0.250987
-0.270399
0.0545191
0.0486603
0.0427671
0.0369208
0.0310928
0.0252548
0.0193984
0.0135308
0.00766648
0.00181889
-0.00400248
-0.00979021
-0.0155365
-0.0212328
-0.0268698
-0.0324382
-0.0379293
-0.0433344
-0.048645
-0.053853
-0.0589505
-0.0639296
-0.0687834
-0.0735052
-0.0780888
-0.0825285
-0.0868196
-0.0909584
-0.0949421
-0.0987694
-0.10244
-0.105952
-0.109309
-0.112512
-0.115558
-0.118433
-0.121125
-0.123634
-0.12597
-0.12815
-0.130192
-0.13211
-0.133921
-0.135636
-0.137271
-0.13884
-0.140362
-0.141859
-0.143354
-0.144872
-0.14644
-0.148091
-0.149863
-0.151797
-0.153939
-0.156343
-0.159072
-0.162199
-0.165813
-0.170021
-0.174953
-0.180769
-0.18766
-0.195864
-0.205658
-0.217389
-0.231426
-0.248171
-0.268107
0.0534203
0.0472344
0.0410179
0.0348558
0.0287175
0.0225735
0.0164152
0.0102504
0.00409498
-0.00203609
-0.00813237
-0.0141858
-0.0201882
-0.0261302
-0.0320016
-0.0377921
-0.0434922
-0.0490921
-0.0545827
-0.0599551
-0.0652003
-0.07031
-0.0752763
-0.0800919
-0.0847501
-0.0892448
-0.0935712
-0.0977252
-0.101703
-0.105504
-0.109125
-0.112569
-0.115836
-0.118928
-0.121841
-0.124559
-0.127072
-0.129384
-0.131505
-0.133455
-0.135253
-0.136914
-0.138453
-0.139884
-0.141221
-0.14248
-0.143679
-0.144842
-0.145992
-0.147154
-0.148355
-0.149628
-0.151007
-0.152534
-0.154254
-0.15622
-0.158494
-0.16115
-0.16428
-0.167996
-0.172434
-0.177767
-0.184199
-0.191994
-0.201442
-0.212908
-0.226775
-0.243471
-0.263748
0.0519164
0.0453814
0.0388189
0.032318
0.0258469
0.0193752
0.0128942
0.00641259
-5.25895e-05
-0.00648529
-0.0128741
-0.01921
-0.0254838
-0.0316853
-0.0378033
-0.0438266
-0.0497445
-0.0555468
-0.061223
-0.0667635
-0.0721585
-0.0773989
-0.0824759
-0.0873816
-0.0921088
-0.0966511
-0.101003
-0.10516
-0.109117
-0.112874
-0.116429
-0.119784
-0.122939
-0.125897
-0.12865
-0.131184
-0.13349
-0.135574
-0.137451
-0.139139
-0.140659
-0.142028
-0.14326
-0.144369
-0.145371
-0.146281
-0.147119
-0.147909
-0.148673
-0.149437
-0.150228
-0.151077
-0.152016
-0.153085
-0.154325
-0.155789
-0.157537
-0.159644
-0.162203
-0.165329
-0.169165
-0.173893
-0.17973
-0.186947
-0.195848
-0.20681
-0.220224
-0.236493
-0.25622
0.0499494
0.0430401
0.0361066
0.0292431
0.0224163
0.0155948
0.00876943
0.00194967
-0.00484593
-0.0115998
-0.0182996
-0.0249355
-0.0314974
-0.0379736
-0.0443519
-0.0506203
-0.0567669
-0.0627807
-0.0686502
-0.0743644
-0.0799126
-0.0852849
-0.0904718
-0.0954646
-0.100255
-0.104837
-0.109203
-0.113349
-0.117271
-0.120967
-0.124436
-0.127679
-0.130697
-0.133492
-0.136056
-0.138373
-0.140439
-0.142262
-0.143858
-0.145248
-0.146453
-0.14749
-0.148374
-0.149121
-0.149746
-0.150266
-0.150702
-0.151076
-0.151412
-0.151736
-0.152073
-0.152451
-0.152901
-0.153458
-0.154162
-0.155059
-0.156208
-0.157684
-0.159578
-0.162007
-0.165117
-0.169091
-0.174151
-0.180572
-0.188675
-0.198845
-0.21153
-0.227113
-0.246349
0.0474405
0.0401299
0.0327992
0.0255476
0.0183398
0.0111435
0.00394951
-0.00323158
-0.01038
-0.0174767
-0.024508
-0.0314632
-0.0383308
-0.0450983
-0.0517524
-0.0582794
-0.0646665
-0.0709011
-0.0769711
-0.0828644
-0.0885689
-0.0940739
-0.0993691
-0.104445
-0.109293
-0.113905
-0.118274
-0.122394
-0.126263
-0.129877
-0.133236
-0.13634
-0.139192
-0.141793
-0.144132
-0.146196
-0.147984
-0.149505
-0.150779
-0.151829
-0.152676
-0.153338
-0.153833
-0.154174
-0.154378
-0.154463
-0.154452
-0.154366
-0.154231
-0.154069
-0.153905
-0.153764
-0.153673
-0.153663
-0.15377
-0.154033
-0.15451
-0.15527
-0.1564
-0.158013
-0.16025
-0.163288
-0.16735
-0.172711
-0.179712
-0.188756
-0.200385
-0.214957
-0.233886
0.0443033
0.0365625
0.0288062
0.0211383
0.0135218
0.00592345
-0.00166579
-0.00923454
-0.0167611
-0.024225
-0.0316107
-0.0389064
-0.0460998
-0.0531772
-0.0601236
-0.0669245
-0.0735654
-0.0800322
-0.0863115
-0.0923902
-0.0982554
-0.103895
-0.109296
-0.114451
-0.119348
-0.123979
-0.128336
-0.132414
-0.136208
-0.139717
-0.142938
-0.145874
-0.148527
-0.150897
-0.152971
-0.154739
-0.156203
-0.157377
-0.158282
-0.158944
-0.159384
-0.159622
-0.159676
-0.159561
-0.159295
-0.158898
-0.158391
-0.1578
-0.157146
-0.156453
-0.155743
-0.155035
-0.154352
-0.153721
-0.153171
-0.152739
-0.152472
-0.15243
-0.152689
-0.15335
-0.154541
-0.156429
-0.159231
-0.163224
-0.168774
-0.176311
-0.186472
-0.199583
-0.218084
0.0404302
0.0322283
0.0240157
0.0159013
0.00784666
-0.000182729
-0.00819596
-0.0161804
-0.0241122
-0.0319692
-0.0397344
-0.0473947
-0.0549364
-0.0623439
-0.0696008
-0.0766912
-0.0835992
-0.0903091
-0.096806
-0.103076
-0.109104
-0.114878
-0.120384
-0.125611
-0.130548
-0.135186
-0.139516
-0.143532
-0.147229
-0.150605
-0.153659
-0.156392
-0.158807
-0.160904
-0.162668
-0.164093
-0.165185
-0.165961
-0.166445
-0.166665
-0.166643
-0.166402
-0.165959
-0.165332
-0.164542
-0.163609
-0.162556
-0.16141
-0.160191
-0.158922
-0.157619
-0.1563
-0.154982
-0.153682
-0.152423
-0.151233
-0.150146
-0.149206
-0.148471
-0.148024
-0.147976
-0.148476
-0.149731
-0.152018
-0.155728
-0.161327
-0.169545
-0.18078
-0.197706
0.0357001
0.0270019
0.0182977
0.00970273
0.00117654
-0.00731642
-0.0157847
-0.0242148
-0.0325812
-0.0408597
-0.0490317
-0.0570825
-0.0649966
-0.072757
-0.0803456
-0.0877443
-0.0949354
-0.101902
-0.108627
-0.115095
-0.121289
-0.127196
-0.132803
-0.138095
-0.143062
-0.147691
-0.151973
-0.155903
-0.159475
-0.162687
-0.165537
-0.168027
-0.170162
-0.171936
-0.173339
-0.174366
-0.175027
-0.175346
-0.175348
-0.175062
-0.174515
-0.173729
-0.172725
-0.171525
-0.170151
-0.168624
-0.166974
-0.165222
-0.16339
-0.161498
-0.15956
-0.157587
-0.155591
-0.153579
-0.151562
-0.149552
-0.147567
-0.145631
-0.143782
-0.142076
-0.140598
-0.139472
-0.138887
-0.139115
-0.14055
-0.143688
-0.149381
-0.158448
-0.17506
0.029973
0.0207404
0.0115067
0.00239375
-0.0066408
-0.0156341
-0.0245941
-0.0335053
-0.04234
-0.051072
-0.0596807
-0.0681501
-0.0764629
-0.0846004
-0.0925428
-0.10027
-0.107763
-0.115002
-0.121969
-0.128645
-0.135014
-0.141059
-0.146764
-0.152114
-0.157096
-0.161698
-0.165912
-0.169729
-0.173144
-0.176153
-0.178757
-0.180957
-0.182757
-0.184151
-0.185129
-0.185691
-0.185854
-0.185644
-0.185092
-0.184227
-0.183081
-0.181678
-0.180043
-0.178201
-0.176176
-0.173997
-0.171691
-0.169281
-0.166787
-0.164227
-0.161609
-0.15894
-0.156222
-0.153452
-0.150628
-0.147745
-0.1448
-0.141793
-0.138731
-0.135635
-0.132556
-0.129589
-0.126889
-0.124705
-0.123417
-0.123553
-0.126052
-0.13191
-0.144827
0.0230749
0.0132671
0.00346346
-0.00620808
-0.0157919
-0.0253256
-0.0348163
-0.0442468
-0.0535872
-0.0628087
-0.0718895
-0.0808107
-0.0895539
-0.0980977
-0.10642
-0.114499
-0.122312
-0.12984
-0.137061
-0.143955
-0.150503
-0.156686
-0.162486
-0.167885
-0.172868
-0.177425
-0.181543
-0.185216
-0.188437
-0.191201
-0.193509
-0.195363
-0.196766
-0.197711
-0.198193
-0.198218
-0.197809
-0.196993
-0.195807
-0.194284
-0.192456
-0.190354
-0.188007
-0.185445
-0.182697
-0.179794
-0.176764
-0.173632
-0.17042
-0.167139
-0.163796
-0.160389
-0.156913
-0.153355
-0.149697
-0.145915
-0.141977
-0.137851
-0.133509
-0.128934
-0.124134
-0.119153
-0.114101
-0.109186
-0.10478
-0.101522
-0.100631
-0.103583
-0.114977
0.0147836
0.00435479
-0.00606584
-0.0163423
-0.0265206
-0.0366382
-0.046702
-0.0566935
-0.0665804
-0.0763318
-0.0859227
-0.0953328
-0.104541
-0.113523
-0.122255
-0.130712
-0.138871
-0.146708
-0.154199
-0.161322
-0.168055
-0.174376
-0.180265
-0.185705
-0.190677
-0.195166
-0.199162
-0.202654
-0.205638
-0.208108
-0.210063
-0.21151
-0.212446
-0.212863
-0.212762
-0.21216
-0.211081
-0.209561
-0.207638
-0.205351
-0.202736
-0.199831
-0.196673
-0.193294
-0.189729
-0.186013
-0.18218
-0.178256
-0.174262
-0.170211
-0.166104
-0.161937
-0.157694
-0.153348
-0.148862
-0.144187
-0.139263
-0.134025
-0.128402
-0.12233
-0.115757
-0.108664
-0.101096
-0.0932107
-0.0854173
-0.0785703
-0.0743029
-0.0744352
-0.0832547
0.00486835
-0.00623489
-0.017327
-0.0282627
-0.0390891
-0.0498442
-0.0605339
-0.0711372
-0.0816194
-0.0919465
-0.102091
-0.112032
-0.121742
-0.131199
-0.140373
-0.149239
-0.157769
-0.165937
-0.173716
-0.18108
-0.188005
-0.194467
-0.200443
-0.205912
-0.210856
-0.215257
-0.219101
-0.222376
-0.225075
-0.227195
-0.228735
-0.2297
-0.230087
-0.229889
-0.229111
-0.227773
-0.225908
-0.223559
-0.220768
-0.217583
-0.214047
-0.210204
-0.206098
-0.201772
-0.197272
-0.192641
-0.187917
-0.183129
-0.178302
-0.173445
-0.168557
-0.163626
-0.158626
-0.153515
-0.14824
-0.142728
-0.136891
-0.130622
-0.123801
-0.116301
-0.108005
-0.0988168
-0.0887102
-0.0778009
-0.0666085
-0.0563445
-0.0491945
-0.0471961
-0.0540055
-0.00701745
-0.0188523
-0.0306754
-0.0423307
-0.0538654
-0.0653177
-0.0766921
-0.0879652
-0.0990993
-0.110058
-0.120811
-0.131332
-0.141596
-0.151573
-0.161233
-0.170545
-0.179479
-0.188005
-0.196095
-0.203718
-0.210847
-0.217455
-0.223515
-0.229003
-0.233899
-0.238183
-0.241837
-0.244848
-0.247206
-0.248907
-0.24995
-0.250336
-0.250063
-0.249126
-0.247537
-0.245321
-0.242522
-0.239188
-0.235373
-0.231128
-0.226508
-0.221566
-0.216358
-0.210943
-0.205378
-0.199717
-0.194004
-0.188276
-0.182556
-0.176856
-0.171171
-0.165484
-0.15976
-0.153948
-0.147976
-0.141748
-0.135144
-0.128012
-0.120172
-0.111432
-0.101602
-0.0905147
-0.0780822
-0.0644214
-0.0502453
-0.0372837
-0.0281493
-0.0248144
-0.0306366
-0.0212919
-0.0339291
-0.0465566
-0.0590064
-0.0713246
-0.0835479
-0.0956792
-0.107693
-0.119548
-0.131204
-0.142629
-0.153794
-0.164667
-0.175217
-0.185409
-0.195209
-0.204585
-0.213502
-0.221927
-0.229827
-0.237171
-0.243928
-0.250067
-0.255561
-0.260384
-0.264513
-0.267927
-0.270613
-0.272556
-0.27375
-0.274192
-0.273881
-0.272812
-0.270987
-0.268427
-0.26517
-0.261265
-0.256768
-0.251739
-0.246242
-0.240343
-0.234111
-0.22762
-0.220942
-0.214149
-0.207308
-0.200477
-0.193701
-0.187011
-0.180421
-0.173928
-0.16751
-0.161126
-0.154716
-0.148194
-0.141441
-0.134301
-0.126576
-0.118027
-0.108393
-0.0974238
-0.0848969
-0.0706905
-0.054994
-0.0388239
-0.0244457
-0.0145896
-0.0109901
-0.0162948
-0.0386833
-0.0521993
-0.0657111
-0.0790337
-0.0922104
-0.105277
-0.118234
-0.131054
-0.143692
-0.156106
-0.168261
-0.180124
-0.19166
-0.202833
-0.213606
-0.223939
-0.233795
-0.243136
-0.251924
-0.260122
-0.267693
-0.274603
-0.280816
-0.2863
-0.291025
-0.294962
-0.298089
-0.300385
-0.301834
-0.302426
-0.302157
-0.30102
-0.29901
-0.296138
-0.292431
-0.287936
-0.282708
-0.276812
-0.27032
-0.26331
-0.255866
-0.248079
-0.240045
-0.231857
-0.223612
-0.215394
-0.207279
-0.199328
-0.19158
-0.184056
-0.176753
-0.169648
-0.162695
-0.15583
-0.148956
-0.141941
-0.134604
-0.126709
-0.117966
-0.108053
-0.096663
-0.0835316
-0.0685249
-0.0520258
-0.035492
-0.0213748
-0.0119342
-0.00858741
-0.0130177
-0.0596665
-0.0741179
-0.0885761
-0.102837
-0.116941
-0.130919
-0.14477
-0.158464
-0.171952
-0.18519
-0.19814
-0.210763
-0.223023
-0.234878
-0.246286
-0.257204
-0.267589
-0.277398
-0.286588
-0.295116
-0.30294
-0.310018
-0.31631
-0.321777
-0.326384
-0.330098
-0.332887
-0.334726
-0.335595
-0.335479
-0.33437
-0.332256
-0.329133
-0.325018
-0.319946
-0.313967
-0.307148
-0.299566
-0.291306
-0.282469
-0.273162
-0.263504
-0.253621
-0.243636
-0.233676
-0.223855
-0.214272
-0.205005
-0.196105
-0.1876
-0.179488
-0.171743
-0.164323
-0.157168
-0.150196
-0.14329
-0.136273
-0.128896
-0.120826
-0.111664
-0.101017
-0.0885359
-0.0741557
-0.0586128
-0.0435646
-0.0308763
-0.0220504
-0.0183468
-0.0204039
-0.0852204
-0.100665
-0.116152
-0.131437
-0.146551
-0.161526
-0.176357
-0.191011
-0.205437
-0.219587
-0.233418
-0.246887
-0.259952
-0.272568
-0.284688
-0.296263
-0.307245
-0.317585
-0.327234
-0.336142
-0.344259
-0.351538
-0.35793
-0.36339
-0.367874
-0.371341
-0.373751
-0.375073
-0.375276
-0.374338
-0.372239
-0.368963
-0.364506
-0.358888
-0.35215
-0.344352
-0.335572
-0.3259
-0.315444
-0.304329
-0.292701
-0.280716
-0.268539
-0.256342
-0.244292
-0.232547
-0.221235
-0.210457
-0.200275
-0.190715
-0.181771
-0.173413
-0.165612
-0.158349
-0.151613
-0.145359
-0.139452
-0.133623
-0.127432
-0.120324
-0.111767
-0.101379
-0.0893182
-0.0764262
-0.0637645
-0.0523761
-0.043641
-0.0391217
-0.039335
-0.113615
-0.130216
-0.146845
-0.163268
-0.179508
-0.195589
-0.211506
-0.227223
-0.242688
-0.257847
-0.272654
-0.287062
-0.301024
-0.31449
-0.327406
-0.339719
-0.351372
-0.362311
-0.372478
-0.381817
-0.39027
-0.39778
-0.404289
-0.409745
-0.414093
-0.417282
-0.419264
-0.419995
-0.419434
-0.417552
-0.414319
-0.409718
-0.403748
-0.396425
-0.387791
-0.377911
-0.366875
-0.354789
-0.341778
-0.327998
-0.313636
-0.298902
-0.284021
-0.269228
-0.254749
-0.240791
-0.227523
-0.21507
-0.203496
-0.19281
-0.182988
-0.174
-0.165853
-0.158622
-0.152441
-0.147393
-0.143381
-0.14004
-0.136737
-0.132791
-0.127605
-0.120847
-0.112486
-0.102653
-0.0917365
-0.0810182
-0.072444
-0.0677217
-0.0674148
-0.150044
-0.167884
-0.185858
-0.203601
-0.221139
-0.238503
-0.255687
-0.272654
-0.289345
-0.305703
-0.321674
-0.337209
-0.352254
-0.366757
-0.380655
-0.393888
-0.406392
-0.418105
-0.428964
-0.4389
-0.447845
-0.455734
-0.462502
-0.468082
-0.472407
-0.475416
-0.477045
-0.477233
-0.475921
-0.47305
-0.468568
-0.462439
-0.454658
-0.445241
-0.434235
-0.421705
-0.407746
-0.392484
-0.376077
-0.358718
-0.340643
-0.322132
-0.303499
-0.285075
-0.26719
-0.250144
-0.234192
-0.219508
-0.206161
-0.194113
-0.183245
-0.173443
-0.164693
-0.15719
-0.151304
-0.147342
-0.145296
-0.144779
-0.145038
-0.145277
-0.144629
-0.14215
-0.137095
-0.129322
-0.119727
-0.110244
-0.103177
-0.0998862
-0.100344
-0.181565
-0.201017
-0.220337
-0.239422
-0.258299
-0.276976
-0.295442
-0.31366
-0.331572
-0.349116
-0.366237
-0.382879
-0.398984
-0.414486
-0.429316
-0.443408
-0.456694
-0.469104
-0.480564
-0.490999
-0.500332
-0.508491
-0.515398
-0.520974
-0.525144
-0.52783
-0.528951
-0.528425
-0.52617
-0.522114
-0.516198
-0.508386
-0.498677
-0.487097
-0.473696
-0.458542
-0.441729
-0.423384
-0.403685
-0.382854
-0.361167
-0.338965
-0.316655
-0.294691
-0.273556
-0.253721
-0.235591
-0.219432
-0.205306
-0.19303
-0.182203
-0.172366
-0.163298
-0.155358
-0.149412
-0.146276
-0.146164
-0.148544
-0.15232
-0.15621
-0.158842
-0.158822
-0.15541
-0.148938
-0.140921
-0.133689
-0.129449
-0.128823
-0.131538
-0.238603
-0.259597
-0.280981
-0.302055
-0.322856
-0.343453
-0.363843
-0.383986
-0.403817
-0.423265
-0.442265
-0.460751
-0.478656
-0.495907
-0.512431
-0.528152
-0.542993
-0.556872
-0.569704
-0.581403
-0.591885
-0.60106
-0.608838
-0.615134
-0.61986
-0.622933
-0.624258
-0.623696
-0.621064
-0.61618
-0.608894
-0.599122
-0.586839
-0.572071
-0.554876
-0.53534
-0.51358
-0.489752
-0.464075
-0.436838
-0.408409
-0.379236
-0.349861
-0.320931
-0.29319
-0.267434
-0.244438
-0.224818
-0.208875
-0.196431
-0.186699
-0.178386
-0.17037
-0.162814
-0.157174
-0.154754
-0.155575
-0.158664
-0.162849
-0.16675
-0.16884
-0.168026
-0.164173
-0.158041
-0.151354
-0.146427
-0.144978
-0.147157
-0.152713
-0.255769
-0.278228
-0.300164
-0.322106
-0.343992
-0.36568
-0.387136
-0.408333
-0.429203
-0.449659
-0.469626
-0.489036
-0.507822
-0.525915
-0.543236
-0.559702
-0.575224
-0.589713
-0.603075
-0.615213
-0.626027
-0.635414
-0.64327
-0.649496
-0.654014
-0.656786
-0.657853
-0.657179
-0.654523
-0.64961
-0.642214
-0.63217
-0.619361
-0.603703
-0.585124
-0.563587
-0.539074
-0.511631
-0.481405
-0.448674
-0.413869
-0.377603
-0.340704
-0.304255
-0.269582
-0.238207
-0.211685
-0.191356
-0.177989
-0.171327
-0.16972
-0.170268
-0.169871
-0.167641
-0.165183
-0.164232
-0.165089
-0.16706
-0.169353
-0.171095
-0.170981
-0.168033
-0.162373
-0.155174
-0.148519
-0.144679
-0.145145
-0.149884
-0.158446
-0.356723
-0.382688
-0.408899
-0.434487
-0.459558
-0.484387
-0.509068
-0.533536
-0.557673
-0.581371
-0.604541
-0.627107
-0.648996
-0.670129
-0.690416
-0.709763
-0.728066
-0.745218
-0.761108
-0.775618
-0.78862
-0.799977
-0.809539
-0.817134
-0.82256
-0.825563
-0.825806
-0.823057
-0.817347
-0.808788
-0.797446
-0.783274
-0.766116
-0.745731
-0.721854
-0.694234
-0.662706
-0.627235
-0.587947
-0.545163
-0.499466
-0.451775
-0.403365
-0.355822
-0.310969
-0.270734
-0.236941
-0.210994
-0.193489
-0.183884
-0.180414
-0.180364
-0.180931
-0.180509
-0.179011
-0.177129
-0.175397
-0.173955
-0.172509
-0.170365
-0.166529
-0.160211
-0.151589
-0.1424
-0.135327
-0.132492
-0.133913
-0.138569
-0.146436
0.0118622
0.0168753
0.0221259
0.0275737
0.033307
0.0394034
0.0458633
0.0525441
0.0593898
0.0665643
0.0740921
0.0818679
0.0897343
0.0981622
0.106266
0.114589
0.122577
0.130906
0.138895
0.146659
0.1547
0.161764
0.168358
0.174363
0.17978
0.184473
0.188081
0.190894
0.193014
0.193942
0.193766
0.192847
0.191204
0.188788
0.185262
0.181141
0.176481
0.17116
0.165428
0.159503
0.153005
0.146384
0.140053
0.133774
0.126985
0.12065
0.114195
0.10816
0.102268
0.0966529
0.0913245
0.0862721
0.0816027
0.0771764
0.0730731
0.0690392
0.0654641
0.0621361
0.0591503
0.0107017
0.0159178
0.0214133
0.027183
0.0332521
0.0396361
0.0463474
0.0533566
0.0606482
0.0682419
0.0761109
0.084228
0.0925556
0.101122
0.1098
0.118466
0.127172
0.135814
0.144327
0.15249
0.160569
0.168113
0.175068
0.181417
0.187026
0.191837
0.195743
0.198604
0.200703
0.201664
0.201462
0.200492
0.198703
0.195989
0.192374
0.188025
0.183065
0.177506
0.171467
0.165072
0.158324
0.151476
0.14465
0.13766
0.130747
0.123944
0.117327
0.110971
0.104796
0.098871
0.0932552
0.0879438
0.0828983
0.0781993
0.0737616
0.0696848
0.0659585
0.062523
0.0593668
0.00913433
0.0146243
0.0203996
0.0264915
0.0329013
0.039638
0.0466961
0.0540701
0.0617619
0.0697696
0.078061
0.0865997
0.0953651
0.104329
0.113428
0.12263
0.13186
0.140994
0.149932
0.158585
0.166952
0.174888
0.182228
0.188885
0.194766
0.199783
0.203871
0.206905
0.208996
0.209959
0.209803
0.20875
0.206722
0.203766
0.199929
0.195333
0.19005
0.184193
0.177827
0.1711
0.164071
0.156816
0.149474
0.142124
0.134847
0.127719
0.120756
0.114003
0.107496
0.101274
0.0953686
0.0897724
0.0844877
0.0795195
0.0749099
0.0706516
0.0667192
0.0630901
0.059756
0.00730035
0.0130793
0.0191632
0.0255811
0.0323349
0.0394319
0.0468696
0.0546451
0.062756
0.071194
0.079937
0.0889539
0.0982149
0.107671
0.117257
0.126945
0.136643
0.146262
0.155685
0.164848
0.173662
0.181988
0.189706
0.196701
0.202885
0.208159
0.212441
0.215634
0.217768
0.218745
0.21858
0.217424
0.21521
0.21205
0.207965
0.20308
0.19747
0.191257
0.184519
0.177401
0.169981
0.16233
0.154582
0.146855
0.139176
0.131637
0.124276
0.117141
0.11028
0.103727
0.0975046
0.09162
0.0860834
0.0808939
0.0760583
0.0715667
0.0674091
0.0635697
0.0600585
0.00530797
0.0113963
0.0178053
0.0245647
0.0316767
0.0391495
0.0469845
0.0551799
0.06373
0.0726224
0.0818366
0.0913445
0.10111
0.111081
0.121194
0.131393
0.141598
0.151723
0.161662
0.171331
0.180617
0.189375
0.197494
0.204854
0.211358
0.216902
0.221399
0.224744
0.226948
0.227939
0.227735
0.226474
0.224103
0.220731
0.216389
0.211193
0.205238
0.198639
0.191498
0.183944
0.176083
0.168008
0.159836
0.151663
0.143547
0.135568
0.127789
0.12026
0.113023
0.106111
0.0995457
0.0933402
0.087502
0.0820332
0.0769313
0.0721918
0.06781
0.0637674
0.0600739
0.00309138
0.00951068
0.0162683
0.0233947
0.0308923
0.0387699
0.0470297
0.0556704
0.0646848
0.0740586
0.08377
0.0937895
0.104079
0.114587
0.125254
0.136008
0.146768
0.157439
0.167917
0.178103
0.187875
0.197098
0.205646
0.213393
0.220231
0.226053
0.230772
0.234275
0.236556
0.237561
0.237314
0.235943
0.233405
0.2298
0.22518
0.219655
0.21333
0.206322
0.198748
0.190734
0.182399
0.17385
0.165196
0.156536
0.147948
0.13951
0.131288
0.123335
0.115693
0.108393
0.101459
0.0949054
0.088741
0.0829687
0.0775877
0.0725928
0.0679779
0.0637219
0.0598343
0.000580652
0.00735227
0.0144818
0.0220008
0.0299118
0.0382238
0.0469391
0.0560558
0.065566
0.0754546
0.0856985
0.0962665
0.107118
0.1182
0.129452
0.140797
0.152147
0.163402
0.174453
0.185188
0.195481
0.205196
0.214197
0.222353
0.229544
0.235658
0.240605
0.244272
0.246634
0.247651
0.247357
0.245863
0.243139
0.23928
0.234357
0.228478
0.221753
0.214307
0.206265
0.197758
0.188913
0.179846
0.170671
0.161492
0.152399
0.14347
0.134772
0.126361
0.11828
0.110564
0.103237
0.0963154
0.0898082
0.0837185
0.0780446
0.0727793
0.0679153
0.0634306
0.0593348
-0.00226118
0.00488514
0.0124097
0.0203456
0.0286957
0.0374695
0.0466694
0.0562932
0.0663322
0.0767706
0.0875843
0.0987402
0.110195
0.121892
0.133767
0.145739
0.157716
0.169593
0.181256
0.192581
0.203433
0.213671
0.223153
0.231741
0.239307
0.245732
0.25092
0.254756
0.257202
0.25823
0.257879
0.256247
0.253319
0.249188
0.243936
0.237672
0.230515
0.222595
0.214048
0.205011
0.195618
0.185995
0.176263
0.16653
0.156893
0.147434
0.138224
0.12932
0.120769
0.112606
0.104859
0.0975432
0.0906685
0.0842372
0.0782467
0.0726889
0.067556
0.0628246
0.0585054
-0.00547748
0.00206927
0.0100156
0.0183958
0.0272133
0.0364782
0.046193
0.0563555
0.0669566
0.0779801
0.0894007
0.101183
0.11328
0.125634
0.138174
0.150815
0.163461
0.176002
0.188315
0.200268
0.211718
0.222515
0.23251
0.241558
0.249524
0.25628
0.261722
0.265736
0.26827
0.269306
0.268889
0.267106
0.263958
0.259533
0.253924
0.247245
0.239621
0.231192
0.2221
0.212493
0.202512
0.192293
0.181962
0.171634
0.161411
0.15138
0.141617
0.132183
0.123126
0.114485
0.106285
0.098545
0.0912733
0.0844724
0.0781394
0.0722659
0.0668431
0.061847
0.0572885
-0.0091251
-0.00115149
0.00724481
0.0160991
0.0254155
0.0352039
0.0454676
0.0562046
0.0674056
0.0790532
0.0911207
0.10357
0.116353
0.129406
0.142656
0.156012
0.169372
0.18262
0.195625
0.208247
0.220333
0.231726
0.242269
0.251808
0.2602
0.267309
0.273023
0.277223
0.27985
0.280893
0.280401
0.278456
0.275068
0.270326
0.264331
0.257203
0.249076
0.240098
0.230422
0.220201
0.209588
0.198726
0.187749
0.176779
0.165923
0.155276
0.144917
0.134911
0.125308
0.11615
0.107463
0.099265
0.091566
0.0843681
0.0776678
0.071456
0.0657231
0.0604438
0.0556294
-0.0132789
-0.00484898
0.00402757
0.0133881
0.0232375
0.0335865
0.0444381
0.05579
0.0676327
0.0799477
0.0927064
0.105869
0.119383
0.133183
0.14719
0.161309
0.175432
0.189435
0.203179
0.216514
0.229279
0.241309
0.252436
0.262499
0.271344
0.278829
0.284832
0.289229
0.291954
0.293002
0.292428
0.290307
0.286659
0.281575
0.275163
0.267551
0.258881
0.249312
0.239004
0.228122
0.216826
0.20527
0.193594
0.181931
0.170393
0.159082
0.14808
0.137456
0.127265
0.117549
0.108336
0.099645
0.0914861
0.083861
0.0767657
0.0701902
0.0641241
0.0585408
0.0534513
-0.0180222
-0.00910369
0.000288094
0.0101913
0.0206115
0.0315603
0.0430413
0.0550519
0.0675814
0.08061
0.0941072
0.108031
0.122327
0.136925
0.151743
0.166679
0.181617
0.196427
0.21096
0.225057
0.238548
0.251258
0.26301
0.273633
0.282962
0.290847
0.297157
0.301764
0.304593
0.305644
0.304978
0.302665
0.298737
0.293283
0.28642
0.278285
0.269029
0.25882
0.24783
0.236234
0.224201
0.211896
0.199467
0.187054
0.17478
0.16275
0.151053
0.139763
0.128936
0.118618
0.108837
0.099615
0.0909604
0.0828752
0.0753548
0.0683882
0.061964
0.0560541
0.0506692
-0.0234442
-0.0140018
-0.00405813
0.00642649
0.0174586
0.0290504
0.0412045
0.0539183
0.0671811
0.0809719
0.0952585
0.109997
0.12513
0.140584
0.15627
0.17208
0.187892
0.203564
0.218942
0.233855
0.248123
0.261562
0.273983
0.285204
0.29505
0.303363
0.310002
0.31483
0.317768
0.31882
0.318053
0.315532
0.311297
0.305443
0.298093
0.289393
0.279504
0.268605
0.256879
0.24451
0.23168
0.218564
0.205323
0.192103
0.179033
0.166227
0.153779
0.141767
0.130253
0.119283
0.108888
0.0990906
0.0898998
0.0813175
0.0733382
0.0659499
0.05914
0.0528788
0.0471768
-0.0296538
-0.0196479
-0.00911165
0.0019962
0.0136826
0.0259603
0.0388334
0.052299
0.0663457
0.0809528
0.0960866
0.1117
0.12773
0.1441
0.160715
0.177461
0.194208
0.210806
0.227089
0.242876
0.257978
0.272198
0.285336
0.297198
0.307599
0.31637
0.323359
0.328423
0.331475
0.332526
0.331646
0.328899
0.324333
0.318045
0.310168
0.300857
0.290284
0.278638
0.266116
0.252914
0.239223
0.225231
0.211109
0.197015
0.183085
0.16944
0.156181
0.14339
0.131133
0.119457
0.108398
0.0979783
0.0882073
0.0790869
0.070611
0.0627666
0.0555401
0.0489002
0.0428567
-0.0367938
-0.0261836
-0.0150119
-0.00323634
0.00915202
0.0221664
0.0358111
0.0500843
0.0649747
0.0804592
0.0965015
0.113051
0.130043
0.147394
0.165004
0.182755
0.200506
0.218096
0.23535
0.252076
0.268073
0.283131
0.297039
0.309589
0.320585
0.329847
0.337211
0.342526
0.3457
0.346747
0.345742
0.342749
0.337822
0.331066
0.322619
0.312646
0.301334
0.288882
0.275499
0.261396
0.246776
0.231836
0.216761
0.201718
0.186856
0.172301
0.158162
0.144527
0.131464
0.119026
0.107249
0.096156
0.0857581
0.0760564
0.0670441
0.0587075
0.0510313
0.0439829
0.0375712
-0.0450284
-0.0337684
-0.0219125
-0.00941834
0.00372538
0.0175338
0.0320112
0.0471536
0.0629486
0.0793722
0.096386
0.113938
0.131961
0.150366
0.169049
0.18788
0.206708
0.225364
0.24366
0.261396
0.278355
0.294314
0.309049
0.322338
0.333973
0.343762
0.351529
0.357113
0.360415
0.361456
0.360313
0.357052
0.351735
0.34447
0.335406
0.324719
0.312607
0.299282
0.284967
0.269887
0.254261
0.238298
0.222193
0.206124
0.19025
0.174708
0.159613
0.145059
0.131121
0.117854
0.105297
0.093474
0.0823964
0.0720652
0.0624728
0.0536044
0.0454434
0.0379555
0.0311482
-0.054549
-0.0425893
-0.0299956
-0.0167256
-0.00276746
0.0118942
0.0272643
0.0433386