/*--------------------------------*- C++ -*----------------------------------*\
| =========                 |                                                 |
| \\      /  F ield         | OpenFOAM: The Open Source CFD Toolbox           |
|  \\    /   O peration     | Version:  2312                                  |
|   \\  /    A nd           | Website:  www.openfoam.com                      |
|    \\/     M anipulation  |                                                 |
\*---------------------------------------------------------------------------*/
FoamFile
{
    version     2.0;
    format      ascii;
    arch        "LSB;label=32;scalar=64";
    class       surfaceScalarField;
    location    "1200";
    object      phi;
}
// * * * * * * * * * * * * * * * * * * * * * * * * * * * * * * * * * * * * * //

dimensions      [0 3 -1 0 0 0 0];

oriented        oriented;

internalField   nonuniform List<scalar> 
116611
(
0.0293598
0.0110181
-0.0289544
-0.0114234
0.0297605
0.0109088
-0.0113095
0.0301585
0.0107915
-0.0111896
0.0305524
0.0106656
-0.0110595
0.0309381
0.0105287
-0.0109144
0.0313249
0.0103804
-0.0107672
0.0316963
0.0102217
-0.0105931
0.0320683
0.010052
-0.010424
0.0324328
0.0098707
-0.0102352
0.0327934
0.00967901
-0.0100396
0.0331445
0.00947347
-0.0098245
0.0334891
0.00925546
-0.00960015
0.0338266
0.0090244
-0.00936187
0.0341604
0.00877982
-0.00911362
0.034489
0.00852268
-0.00885129
0.0348059
0.00825266
-0.00856952
0.0351174
0.00796555
-0.0082771
0.0354174
0.00766615
-0.0079661
0.0357062
0.00734768
-0.00763646
0.0359864
0.00701788
-0.00729815
0.0362611
0.00666706
-0.00694167
0.0365259
0.00630221
-0.00656703
0.036781
0.00592016
-0.00617526
0.0370271
0.00552082
-0.00576699
0.0372599
0.00510291
-0.00533568
0.0374823
0.00466588
-0.00488825
0.0376929
0.00420775
-0.00441833
0.0378828
0.00373194
-0.00392193
0.0380641
0.00323435
-0.00341559
0.0382211
0.00271482
-0.00287184
0.0383696
0.0021789
-0.0023274
0.0384996
0.00161546
-0.00174549
0.0386116
0.0010299
-0.00114182
0.0387054
0.0004247
-0.000518567
0.0387773
-0.000208117
0.000136229
0.0388295
-0.000860844
0.000808618
0.0388633
-0.00154271
0.00150899
0.0388765
-0.00224672
0.00223346
0.0388708
-0.00297399
0.00297968
0.0388397
-0.00373155
0.00376272
0.038787
-0.00451289
0.00456555
0.0387146
-0.00532412
0.00539657
0.0386215
-0.00616082
0.00625383
0.0385037
-0.00702509
0.00714294
0.0383663
-0.00791928
0.0080567
0.0382058
-0.00884336
0.00900388
0.0380293
-0.00979766
0.00997416
0.0378272
-0.0107838
0.0109859
0.0376064
-0.0118027
0.0120235
0.0373629
-0.0128548
0.0130983
0.0370976
-0.0139407
0.014206
0.036813
-0.0150605
0.0153451
0.0365072
-0.0162157
0.0165214
0.0361794
-0.0174081
0.0177359
0.0358307
-0.0186379
0.0189866
0.0354567
-0.01991
0.020284
0.0350644
-0.0212233
0.0216157
0.0346471
-0.0225822
0.0229994
0.0342052
-0.0239874
0.0244294
0.0337419
-0.0254375
0.0259008
0.0332716
-0.0269318
0.027402
0.0327888
-0.0284882
0.028971
0.0322883
-0.0301103
0.0306108
0.031786
-0.0317958
0.0322981
0.0312907
-0.0335519
0.0340472
0.0307783
-0.0354049
0.0359173
0.0302953
-0.0373467
0.0378297
0.0298818
-0.0393776
0.0397911
-0.0416242
0.0294804
0.0420257
0.0289635
0.0106146
-0.02856
0.0293628
0.0105095
0.0297584
0.0103959
0.0301504
0.0102735
0.0305383
0.0101409
0.0309203
0.0099984
0.0312962
0.00984576
0.0316662
0.00968199
0.0320297
0.00950717
0.0323881
0.00932059
0.0327394
0.00912218
0.0330833
0.00891159
0.0334195
0.0086882
0.0337479
0.00845146
0.0340686
0.00820196
0.0343828
0.00793844
0.0346873
0.00766109
0.0349843
0.00736911
0.0352695
0.00706246
0.0355474
0.00673996
0.0358132
0.00640127
0.0360689
0.00604655
0.036314
0.00567506
0.0365485
0.00528627
0.0367717
0.00487973
0.0369832
0.00445436
0.0371806
0.00401043
0.037365
0.00354746
0.037535
0.00306437
0.0376885
0.00256132
0.0378301
0.00203736
0.037954
0.00149149
0.03806
0.000923892
0.0381507
0.00033401
0.0382222
-0.000279553
0.0382773
-0.000915998
0.0383116
-0.00157697
0.0383265
-0.00226167
0.0383237
-0.00297112
0.0382993
-0.00370721
0.0382561
-0.00446965
0.038191
-0.00525909
0.0381054
-0.0060752
0.0379998
-0.00691944
0.0378736
-0.0077931
0.0377266
-0.00869635
0.0375585
-0.00962964
0.0373688
-0.0105941
0.0371572
-0.0115911
0.0369231
-0.0126207
0.0366662
-0.0136838
0.0363869
-0.0147812
0.036085
-0.0159138
0.0357603
-0.0170834
0.035414
-0.0182916
0.0350447
-0.0195408
0.0346534
-0.0208319
0.0342393
-0.0221681
0.0338031
-0.0235512
0.0333486
-0.024983
0.0328832
-0.0264663
0.0324045
-0.0280095
0.0319138
-0.0296197
0.0314195
-0.0313014
0.0309311
-0.0330634
0.0304477
-0.0349215
0.0299837
-0.0368828
0.0295518
-0.0389457
-0.0411861
0.0291138
0.0285805
0.0102115
-0.0281774
0.0289793
0.0101107
0.0293738
0.0100014
0.0297642
0.00988314
0.0301497
0.00975537
0.0305302
0.00961788
0.0309056
0.00947034
0.0312753
0.00931237
0.0316388
0.00914364
0.0319957
0.00896365
0.0323458
0.00877212
0.0326887
0.00856868
0.0330239
0.00835297
0.0333508
0.00812453
0.0336698
0.00788305
0.0339802
0.00762805
0.0342819
0.00735931
0.0345747
0.00707635
0.0348583
0.00677888
0.0351319
0.00646632
0.0353948
0.00613835
0.035647
0.00579442
0.0358879
0.00543407
0.0361174
0.0050568
0.036335
0.00466214
0.0365398
0.00424958
0.0367316
0.00381867
0.0369101
0.00336888
0.0370747
0.0028998
0.0372251
0.0024109
0.0373608
0.00190167
0.0374807
0.00137161
0.0375847
0.00081992
0.0376727
0.000245979
0.0377435
-0.000350374
0.0377969
-0.000969359
0.0378317
-0.00161183
0.0378485
-0.00227838
0.0378469
-0.0029696
0.037826
-0.00368633
0.0377855
-0.00442914
0.0377248
-0.00519839
0.0376443
-0.00599467
0.0375436
-0.00681877
0.037422
-0.0076715
0.0372791
-0.00855344
0.0371148
-0.00946528
0.0369287
-0.010408
0.03672
-0.0113825
0.0364887
-0.0123894
0.0362345
-0.0134296
0.0359574
-0.0145041
0.0356577
-0.0156141
0.0353353
-0.0167611
0.0349905
-0.0179468
0.0346232
-0.0191734
0.034234
-0.0204427
0.0338235
-0.0217576
0.0333929
-0.0231207
0.0329449
-0.024535
0.0324832
-0.0260047
0.0320104
-0.0275366
0.0315294
-0.0291387
0.0310467
-0.0308187
0.0305704
-0.0325872
0.0301057
-0.0344567
0.0296583
-0.0364354
0.0292294
-0.0385167
-0.0407454
0.0287886
0.0282083
0.00980881
-0.0278056
0.0286069
0.00971207
0.0290011
0.00960729
0.0293905
0.00949368
0.029775
0.00937086
0.0301544
0.00923849
0.0305285
0.0090963
0.0308968
0.00894402
0.0312592
0.0087813
0.031615
0.00860779
0.0319641
0.00842308
0.0323059
0.00822682
0.0326402
0.00801864
0.0329666
0.00779818
0.0332846
0.00756503
0.0335938
0.00731881
0.0338941
0.00705909
0.0341849
0.00678552
0.0344661
0.00649767
0.0347372
0.00619519
0.034998
0.00587763
0.0352478
0.00554453
0.0354865
0.00519546
0.0357133
0.00482992
0.0359281
0.00444743
0.0361301
0.00404748
0.0363192
0.00362957
0.0364949
0.00319325
0.0366566
0.00273805
0.0368041
0.00226345
0.0369368
0.00176896
0.0370544
0.00125397
0.0371565
0.000717826
0.0372426
0.000159898
0.0373119
-0.000419671
0.037364
-0.00102147
0.0373985
-0.00164636
0.0374151
-0.00229498
0.0374134
-0.00296789
0.0373929
-0.00366577
0.037353
-0.00438924
0.0372934
-0.00513884
0.0372139
-0.00591517
0.037114
-0.0067189
0.0369933
-0.00755079
0.0368514
-0.00841155
0.0366881
-0.00930192
0.0365029
-0.0102227
0.0362952
-0.0111749
0.036065
-0.0121592
0.0358121
-0.0131766
0.0355363
-0.0142283
0.0352378
-0.0153156
0.0349167
-0.01644
0.0345732
-0.0176033
0.0342077
-0.0188079
0.0338208
-0.0200558
0.0334133
-0.0213501
0.0329867
-0.022694
0.0325433
-0.0240915
0.0320864
-0.0255478
0.0316196
-0.0270699
0.0311474
-0.0286665
0.0306764
-0.0303477
0.0302138
-0.0321246
0.0297632
-0.0340061
0.0293229
-0.0359952
0.0288821
-0.0380759
-0.0402715
0.0284082
0.027853
0.00940927
-0.0274535
0.0282494
0.0093157
0.0286419
0.00921472
0.0290302
0.00910544
0.0294137
0.00898737
0.029792
0.00886015
0.0301649
0.00872344
0.030532
0.00857691
0.030893
0.00842026
0.0312476
0.00825315
0.0315955
0.00807521
0.0319363
0.00788607
0.0322695
0.0076854
0.0325948
0.00747283
0.0329119
0.00724799
0.0332202
0.00701047
0.0335194
0.00675988
0.0338092
0.0064958
0.034089
0.00621783
0.0343586
0.00592557
0.0346177
0.00561858
0.0348658
0.00529644
0.0351025
0.00495872
0.0353275
0.00460493
0.0355403
0.00423461
0.0357405
0.00384727
0.0359277
0.00344242
0.0361013
0.00301959
0.0362611
0.00257829
0.0364066
0.00211799
0.0365374
0.00163816
0.0366531
0.00113825
0.0367532
0.000617702
0.0368373
7.57867e-05
0.0369048
-0.000487164
0.0369554
-0.00107201
0.0369885
-0.00167953
0.0370039
-0.00231036
0.0370011
-0.00296508
0.0369796
-0.00364432
0.0369391
-0.00434868
0.036879
-0.00507877
0.0367991
-0.0058352
0.0366988
-0.00661865
0.0365779
-0.00742984
0.0364358
-0.0082695
0.0362723
-0.00913841
0.036087
-0.0100374
0.0358794
-0.0109673
0.0356495
-0.0119292
0.0353969
-0.0129241
0.0351218
-0.0139532
0.0348242
-0.0150179
0.0345042
-0.01612
0.0341621
-0.0172612
0.0337982
-0.018444
0.0334133
-0.0196709
0.0330082
-0.0209451
0.0325848
-0.0222705
0.0321453
-0.0236521
0.0316934
-0.0250959
0.0312334
-0.0266099
0.030771
-0.0282041
0.0303123
-0.0298889
0.0298612
-0.0316735
0.0294161
-0.033561
0.0289677
-0.0355468
0.0284973
-0.0376055
-0.0397506
0.0279764
0.0275217
0.00901434
-0.0271268
0.0279139
0.00892349
0.0283029
0.00882571
0.0286882
0.00872015
0.0290693
0.00860631
0.0294456
0.00848381
0.0298168
0.00835228
0.0301823
0.00821135
0.0305419
0.00806067
0.0308951
0.00789991
0.0312416
0.00772872
0.031581
0.00754671
0.0319129
0.00735354
0.0322368
0.00714885
0.0325526
0.00693227
0.0328596
0.00670342
0.0331576
0.00646189
0.0334461
0.00620729
0.0337247
0.0059392
0.0339931
0.00565721
0.0342508
0.00536089
0.0344974
0.0050498
0.0347326
0.00472351
0.034956
0.00438156
0.0351671
0.00402347
0.0353656
0.00364879
0.035551
0.00325702
0.0357229
0.00284769
0.0358809
0.00242028
0.0360246
0.00197428
0.0361536
0.00150917
0.0362675
0.00102441
0.0363657
0.000519455
0.0364479
-6.44461e-06
0.0365136
-0.00055286
0.0365624
-0.00112082
0.036594
-0.00171105
0.0366078
-0.00232416
0.0366034
-0.00296076
0.0365805
-0.00362143
0.0365386
-0.00430679
0.0364773
-0.00501746
0.0363962
-0.00575408
0.0362949
-0.00651733
0.036173
-0.00730793
0.0360301
-0.00812663
0.0358659
-0.00897422
0.0356801
-0.00985156
0.0354724
-0.0107596
0.0352425
-0.0116994
0.0349904
-0.012672
0.0347159
-0.0136788
0.0344192
-0.0147212
0.0341002
-0.015801
0.0337593
-0.0169203
0.0333968
-0.0180815
0.0330134
-0.0192875
0.0326105
-0.0205421
0.0321899
-0.02185
0.0317547
-0.0232169
0.0313089
-0.0246501
0.0308576
-0.0261586
0.0304058
-0.0277524
0.0299567
-0.0294398
0.029509
-0.0312257
0.0290536
-0.0331057
0.0285753
-0.0350685
0.0280526
-0.0370829
-0.0391566
0.0274586
0.0272153
0.00862314
-0.0268241
0.0276035
0.00853527
0.0279885
0.00844075
0.0283699
0.00833875
0.0287474
0.00822885
0.0291205
0.00811071
0.0294888
0.007984
0.0298517
0.00784837
0.030209
0.00770343
0.0305601
0.00754884
0.0309046
0.00738423
0.031242
0.00720923
0.0315721
0.00702348
0.0318943
0.00682661
0.0322084
0.00661824
0.0325138
0.006398
0.0328102
0.00616549
0.0330971
0.00592032
0.0333743
0.00566207
0.0336411
0.00539034
0.0338974
0.00510468
0.0341425
0.00480467
0.0343761
0.00448986
0.0345979
0.00415979
0.0348074
0.003814
0.0350041
0.00345203
0.0351878
0.00307338
0.0353579
0.00267757
0.0355141
0.00226409
0.0356559
0.00183244
0.035783
0.00138208
0.035895
0.000912492
0.0359913
0.000423141
0.0360715
-8.66745e-05
0.0361352
-0.000616602
0.0361821
-0.0011677
0.0362117
-0.00174066
0.0362237
-0.00233611
0.0362175
-0.00295462
0.0361929
-0.00359679
0.0361494
-0.00426325
0.0360865
-0.00495463
0.036004
-0.00567157
0.0359015
-0.00641477
0.0357785
-0.00718496
0.0356348
-0.00798291
0.03547
-0.00880944
0.0352839
-0.00966542
0.0350761
-0.0105518
0.0348465
-0.0114697
0.0345948
-0.0124203
0.034321
-0.013405
0.0340251
-0.0144252
0.0337069
-0.0154829
0.0333669
-0.0165803
0.0330055
-0.01772
0.0326237
-0.0189057
0.0322231
-0.0201416
0.0318065
-0.0214334
0.0313772
-0.0227876
0.0309398
-0.0242126
0.0304981
-0.0257169
0.0300544
-0.0273088
0.0296064
-0.0289917
0.0291459
-0.0307653
0.0286583
-0.0326181
0.0281265
-0.0345367
0.0275314
-0.0364878
-0.038473
0.0268478
0.0269308
0.00823384
-0.0265415
0.0273165
0.00814952
0.0276986
0.0080587
0.0280767
0.0079606
0.0284507
0.00785486
0.0288203
0.00774117
0.0291851
0.00761922
0.0295447
0.00748873
0.0298988
0.00734934
0.0302469
0.00720072
0.0305886
0.00704251
0.0309235
0.00687434
0.0312511
0.00669585
0.0315711
0.00650667
0.0318829
0.00630642
0.0321862
0.00609471
0.0324805
0.00587115
0.0327655
0.00563535
0.0330407
0.00538689
0.0333057
0.00512537
0.03356
0.00485035
0.0338033
0.0045614
0.0340351
0.00425806
0.034255
0.0039399
0.0344625
0.00360643
0.0346574
0.00325719
0.0348391
0.00289168
0.0350072
0.00250942
0.0351614
0.00210991
0.0353012
0.00169263
0.0354262
0.00125707
0.0355361
0.000802664
0.0356303
0.000328904
0.0357084
-0.000164756
0.03577
-0.000678228
0.0358148
-0.00121249
0.0358424
-0.00176823
0.0358523
-0.00234606
0.0358443
-0.00294656
0.0358178
-0.00357035
0.0357726
-0.00421803
0.0357082
-0.00489027
0.0356244
-0.00558771
0.0355207
-0.00631107
0.0353968
-0.00706109
0.0352524
-0.00783854
0.0350872
-0.00864425
0.034901
-0.00947912
0.0346933
-0.0103441
0.0344639
-0.0112404
0.0342127
-0.0121691
0.0339393
-0.0131317
0.0336439
-0.0141298
0.0333264
-0.0151654
0.0329873
-0.0162411
0.0326273
-0.0173601
0.0322481
-0.0185265
0.0318519
-0.0197454
0.0314417
-0.0210232
0.0310211
-0.0223669
0.0305929
-0.0237844
0.0301579
-0.0252819
0.0297132
-0.026864
0.0292498
-0.0285284
0.0287547
-0.0302701
0.0282114
-0.0320747
0.027605
-0.0339304
0.0269207
-0.0358034
-0.0376876
0.0261353
0.0266647
0.00784539
-0.0262762
0.0270493
0.00776495
0.0274297
0.00767824
0.0278059
0.00758444
0.0281775
0.0074832
0.0285445
0.00737426
0.0289064
0.00725732
0.029263
0.00713213
0.0296139
0.00699836
0.0299589
0.00685572
0.0302976
0.00670386
0.0306295
0.00654245
0.0309542
0.00637113
0.0312713
0.00618954
0.0315804
0.00599731
0.0318811
0.00579404
0.0321729
0.00557936
0.0324554
0.00535286
0.0327281
0.00511414
0.0329907
0.00486278
0.0332427
0.00459835
0.0334837
0.00432043
0.0337132
0.00402856
0.0339308
0.00372228
0.0341361
0.00340112
0.0343287
0.00306461
0.0345081
0.00271227
0.0346739
0.00234358
0.0348258
0.00195806
0.0349633
0.00155517
0.0350859
0.0011344
0.0351934
0.000695202
0.0352853
0.000237004
0.035361
-0.000240501
0.0354204
-0.000737553
0.0354629
-0.00125505
0.0354883
-0.00179365
0.0354962
-0.00235396
0.0354862
-0.00293658
0.035458
-0.00354212
0.0354112
-0.00417121
0.0353454
-0.00482449
0.0352604
-0.00550265
0.0351557
-0.00620638
0.035031
-0.00693644
0.0348861
-0.00769359
0.0347205
-0.00847868
0.034534
-0.00929262
0.0343262
-0.0101364
0.0340969
-0.0110111
0.0338459
-0.011918
0.0335729
-0.0128587
0.033278
-0.0138349
0.0329616
-0.014849
0.0326244
-0.0159039
0.0322679
-0.0170036
0.0318941
-0.0181527
0.0315055
-0.0193568
0.0311047
-0.0206224
0.0306933
-0.0219555
0.0302707
-0.0233618
0.0298325
-0.0248438
0.0293698
-0.0264014
0.0288696
-0.0280282
0.0283173
-0.0297179
0.0276995
-0.0314569
0.0270037
-0.0332346
0.0262123
-0.035012
-0.0367492
0.0252739
0.0264159
0.00745764
-0.0260282
0.0267998
0.0073811
0.0271794
0.0072986
0.0275546
0.00720929
0.027925
0.0071128
0.0282904
0.00700887
0.0286505
0.00689723
0.029005
0.00677759
0.0293537
0.00664969
0.0296962
0.00651321
0.0300322
0.00636786
0.0303613
0.00621331
0.0306832
0.00604922
0.0309975
0.00587526
0.0313038
0.00569105
0.0316016
0.00549622
0.0318905
0.0052904
0.0321702
0.00507319
0.0324402
0.00484417
0.0327
0.00460296
0.0329492
0.0043491
0.0331875
0.00408218
0.0334143
0.00380175
0.0336292
0.00350733
0.0338319
0.00319848
0.0340218
0.00287469
0.0341986
0.00253548
0.0343618
0.00218036
0.0345111
0.00180881
0.0346459
0.0014203
0.034766
0.00101432
0.0348709
0.000590307
0.0349603
0.000147643
0.0350335
-0.000313766
0.0350904
-0.000794463
0.0351307
-0.00129527
0.0351539
-0.00181683
0.0351597
-0.00235975
0.0351477
-0.00292463
0.0351177
-0.00351207
0.0350692
-0.00412272
0.0350019
-0.00475722
0.0349155
-0.00541625
0.0348096
-0.00610052
0.034684
-0.00681077
0.0345382
-0.0075478
0.0343719
-0.00831243
0.0341849
-0.00910559
0.0339768
-0.00992829
0.0337474
-0.0107817
0.0334966
-0.0116672
0.0332244
-0.0125865
0.0329313
-0.0135418
0.032618
-0.0145357
0.0322858
-0.0155718
0.0319365
-0.0166543
0.0315721
-0.0177882
0.031194
-0.0189787
0.0308024
-0.0202308
0.0303952
-0.0215484
0.0299669
-0.0229335
0.029508
-0.0243849
0.0290059
-0.0258992
0.0284473
-0.0274696
0.0278206
-0.0290912
0.0271168
-0.0307532
0.0263247
-0.0324424
0.0254179
-0.0341052
-0.0356512
0.0243198
0.0261863
0.00707076
-0.0257995
0.0265694
0.00699804
0.0269483
0.00691972
0.0273227
0.00683491
0.0276922
0.00674323
0.0280567
0.00664442
0.0284157
0.00653821
0.028769
0.00642433
0.0291162
0.00630248
0.029457
0.00617239
0.0297911
0.00603375
0.0301182
0.00588625
0.0304378
0.00572957
0.0307497
0.00556337
0.0310535
0.0053873
0.0313487
0.005201
0.031635
0.00500411
0.0319119
0.00479623
0.0321791
0.00457698
0.0324361
0.00434593
0.0326826
0.00410267
0.032918
0.00384676
0.033142
0.00357777
0.0333541
0.00329523
0.0335539
0.00299867
0.033741
0.0026876
0.0339149
0.00236154
0.0340753
0.00201998
0.0342217
0.0016624
0.0343537
0.00128828
0.034471
0.000897061
0.0345731
0.000488221
0.0346596
6.10705e-05
0.0347302
-0.000384299
0.0347844
-0.000848706
0.034822
-0.0013329
0.0348427
-0.0018375
0.0348461
-0.00236312
0.0348318
-0.00291035
0.0347995
-0.00347982
0.034749
-0.00407216
0.0346798
-0.00468801
0.0345916
-0.00532807
0.0344841
-0.00599305
0.0343571
-0.0066837
0.0342101
-0.00740082
0.0340429
-0.00814528
0.0338554
-0.00891802
0.0336472
-0.00972015
0.0334185
-0.010553
0.0331693
-0.011418
0.0329002
-0.0123174
0.0326119
-0.0132535
0.0323057
-0.0142295
0.031983
-0.015249
0.0316449
-0.0163162
0.0312919
-0.0174352
0.0309227
-0.0186095
0.0305335
-0.0198417
0.0301178
-0.0211326
0.0296655
-0.0224812
0.0291646
-0.023884
0.0286027
-0.0253374
0.02797
-0.0268369
0.0272591
-0.0283802
0.0264637
-0.0299578
0.0255682
-0.0315469
0.0245303
-0.0330673
-0.0343665
0.0232456
0.0259784
0.00668491
-0.0255925
0.0263604
0.00661596
0.0267384
0.00654177
0.0271119
0.00646141
0.0274806
0.00637453
0.0278442
0.00628085
0.0282023
0.0061801
0.0285546
0.00607202
0.0289008
0.00595632
0.0292404
0.00583272
0.0295733
0.00570092
0.0298989
0.00556062
0.030217
0.0054115
0.0305271
0.00525324
0.0308289
0.00508548
0.031122
0.00490787
0.0314061
0.00472004
0.0316807
0.00452163
0.0319455
0.00431223
0.0321999
0.00409145
0.0324438
0.00385886
0.0326765
0.00361405
0.0328977
0.00335656
0.0331069
0.00308595
0.0333039
0.00280174
0.033488
0.00250345
0.033659
0.00219058
0.0338163
0.00186262
0.0339597
0.00151905
0.0340886
0.00115933
0.0342028
0.000782912
0.0343018
0.000389255
0.0343852
-2.23343e-05
0.0344526
-0.000451722
0.0345038
-0.000899874
0.0345383
-0.00136749
0.034556
-0.0018552
0.0345565
-0.00236359
0.0345394
-0.00289329
0.0345045
-0.0034449
0.0344515
-0.00401908
0.0343799
-0.00461649
0.0342897
-0.00523782
0.0341804
-0.00588381
0.034052
-0.00655524
0.0339041
-0.00725294
0.0337367
-0.00797786
0.0335497
-0.00873102
0.0333432
-0.00951369
0.0331176
-0.0103274
0.0328735
-0.0111739
0.0326115
-0.0120555
0.0323329
-0.0129748
0.0320383
-0.0139349
0.0317282
-0.0149389
0.0314017
-0.0159898
0.0310561
-0.0170896
0.0306864
-0.0182398
0.0302848
-0.0194401
0.0298414
-0.0206892
0.0293446
-0.0219844
0.0287833
-0.0233227
0.0281484
-0.0247024
0.027434
-0.0261225
0.0266352
-0.0275814
0.0257436
-0.0290661
0.0247307
-0.0305341
0.0235262
-0.0318628
-0.0328201
0.0219798
0.0257946
0.00630017
-0.0254098
0.0261756
0.00623496
0.0265525
0.00616485
0.026925
0.00608893
0.0272927
0.00600682
0.0276553
0.00591824
0.0280124
0.00582295
0.0283638
0.00572068
0.0287089
0.00561115
0.0290476
0.00549408
0.0293793
0.00536918
0.0297038
0.00523615
0.0300206
0.00509468
0.0303294
0.00494446
0.0306297
0.00478512
0.0309213
0.00461633
0.0312036
0.00443772
0.0314763
0.00424892
0.031739
0.00404953
0.0319913
0.00383916
0.0322328
0.00361739
0.032463
0.0033838
0.0326816
0.00313795
0.0328882
0.0028794
0.0330823
0.00260766
0.0332635
0.00232225
0.0334314
0.00202268
0.0335856
0.00170842
0.0337257
0.00137894
0.0338513
0.0010337
0.0339621
0.000672142
0.0340576
0.000293705
0.0341375
-0.000102215
0.0342015
-0.000515661
0.0342492
-0.000947584
0.0342804
-0.00139868
0.0342947
-0.00186956
0.034292
-0.00236085
0.0342719
-0.00287317
0.0342341
-0.00340716
0.0341785
-0.00396348
0.0341048
-0.0045428
0.0340129
-0.00514585
0.0339025
-0.00577344
0.0337736
-0.0064264
0.0336264
-0.00710565
0.0334607
-0.00781225
0.0332771
-0.00854739
0.0330759
-0.0093125
0.0328578
-0.0101092
0.0326234
-0.0109395
0.0323733
-0.0118054
0.0321078
-0.0127093
0.0318261
-0.0136532
0.0315262
-0.014639
0.031204
-0.0156676
0.0308534
-0.0167391
0.0304664
-0.0178527
0.0300331
-0.0190068
0.0295429
-0.020199
0.0289859
-0.0214273
0.0283538
-0.0226907
0.0276411
-0.0239897
0.0268442
-0.0253256
0.0259566
-0.0266938
0.0249605
-0.0280701
0.0238018
-0.0293753
0.0223553
-0.0304163
-0.0308296
0.0203648
0.0256374
0.0059164
-0.0252536
0.0260174
0.00585493
0.0263934
0.00578892
0.0267649
0.00571742
0.0271316
0.00564007
0.0274933
0.0055566
0.0278494
0.00546676
0.0281998
0.00537031
0.028544
0.00526696
0.0288816
0.00515644
0.0292123
0.00503847
0.0295357
0.00491276
0.0298514
0.00477899
0.030159
0.00463686
0.0304581
0.00448603
0.0307483
0.00432615
0.0310292
0.00415686
0.0313003
0.0039778
0.0315612
0.00378858
0.0318116
0.00358879
0.032051
0.00337802
0.0322789
0.00315584
0.0324951
0.00292181
0.032699
0.00267549
0.0328903
0.00241639
0.0330685
0.00214402
0.0332333
0.00185789
0.0333842
0.00155746
0.033521
0.00124219
0.0336432
0.000911529
0.0337504
0.000564902
0.0338424
0.000201705
0.0339187
-0.000178487
0.033979
-0.000576023
0.0340232
-0.000991787
0.034051
-0.00142646
0.0340622
-0.00188069
0.0340564
-0.0023551
0.0340336
-0.00285034
0.0339935
-0.00336709
0.0339361
-0.00390603
0.0338612
-0.00446791
0.0337689
-0.00505354
0.0336592
-0.00566378
0.0335324
-0.00629958
0.0333887
-0.006962
0.0332287
-0.00765218
0.0330527
-0.00837142
0.0328613
-0.00912114
0.032655
-0.00990283
0.0324335
-0.0107181
0.0321964
-0.0115683
0.0319418
-0.0124546
0.0316664
-0.0133778
0.0313653
-0.0143379
0.031032
-0.0153343
0.0306584
-0.0163655
0.0302355
-0.0174299
0.029754
-0.0185252
0.0292049
-0.01965
0.0285811
-0.0208035
0.027877
-0.0219866
0.027089
-0.0232018
0.0262123
-0.0244489
0.0252333
-0.0257148
0.0241128
-0.0269495
0.0227505
-0.0280131
0.0209377
-0.0286035
-0.0283001
0.0184082
0.0255092
0.00553329
-0.0251261
0.0258885
0.00547559
0.0262637
0.0054137
0.0266345
0.00534665
0.0270005
0.00527407
0.0273614
0.00519573
0.0277168
0.00511137
0.0280663
0.00502076
0.0284097
0.00492362
0.0287464
0.00481969
0.0290762
0.0047087
0.0293986
0.00459035
0.0297132
0.00446435
0.0300197
0.00433039
0.0303176
0.00418814
0.0306064
0.00403726
0.0308859
0.00387741
0.0311555
0.0037082
0.0314148
0.00352926
0.0316634
0.00334019
0.0319009
0.00314057
0.0321268
0.00292996
0.0323407
0.00270792
0.0325422
0.00247398
0.0327309
0.00222768
0.0329064
0.00196851
0.0330683
0.00169595
0.0332163
0.00140948
0.0333499
0.00110854
0.0334689
0.000792542
0.0335729
0.000460913
0.0336616
0.000112986
0.0337346
-0.00025149
0.0337918
-0.000633169
0.0338329
-0.00103288
0.0338577
-0.00145132
0.0338662
-0.00188915
0.0338581
-0.00234704
0.0338335
-0.00282572
0.0337923
-0.00332591
0.0337347
-0.00384838
0.0336607
-0.00439396
0.0335707
-0.00496353
0.033465
-0.00555806
0.033344
-0.00617856
0.0332081
-0.00682609
0.0330576
-0.00750173
0.0328928
-0.00820659
0.0327134
-0.00894171
0.0325186
-0.00970802
0.0323067
-0.0105062
0.0320751
-0.0113367
0.0318198
-0.0121993
0.0315356
-0.0130936
0.031216
-0.0140184
0.0308538
-0.014972
0.0304409
-0.0159527
0.0299695
-0.0169584
0.029432
-0.0179877
0.0288217
-0.0190397
0.0281337
-0.0201154
0.0273638
-0.0212167
0.0265075
-0.0223454
0.0255535
-0.0234949
0.0244727
-0.0246339
0.0231853
-0.0256621
0.0215185
-0.0263463
0.0191616
-0.0262465
-0.0250041
0.0158655
0.0254124
0.0051504
-0.0250295
0.0257915
0.0050965
0.0261664
0.00503876
0.0265369
0.00497619
0.0269025
0.00490844
0.027263
0.00483526
0.0276179
0.00475643
0.027967
0.0046717
0.0283098
0.00458082
0.028646
0.00448354
0.0289751
0.00437959
0.0292967
0.00426868
0.0296106
0.00415052
0.0299162
0.00402482
0.0302131
0.00389124
0.0305009
0.00374946
0.0307791
0.00359913
0.0310474
0.00343988
0.0313054
0.00327133
0.0315525
0.00309309
0.0317883
0.00290473
0.0320124
0.00270582
0.0322245
0.00249589
0.032424
0.00227449
0.0326105
0.00204111
0.0327838
0.00179525
0.0329434
0.00153638
0.0330889
0.00126396
0.03322
0.000977408
0.0333364
0.000676131
0.0334378
0.000359524
0.0335239
2.68766e-05
0.0335944
-0.000321986
0.0336492
-0.000687964
0.0336882
-0.00107187
0.0337113
-0.00147443
0.0337185
-0.00189638
0.03371
-0.00233846
0.0336857
-0.00280146
0.033646
-0.00328619
0.0335911
-0.0037935
0.0335214
-0.00432425
0.0334372
-0.00487933
0.0333388
-0.00545965
0.0332263
-0.00606611
0.0330998
-0.00669952
0.0329587
-0.00736064
0.0328021
-0.00805006
0.0326286
-0.00876821
0.0324359
-0.00951524
0.0322207
-0.010291
0.031979
-0.011095
0.0317059
-0.0119262
0.0313957
-0.0127834
0.0310423
-0.0136649
0.0306389
-0.0145686
0.0301789
-0.0154927
0.0296559
-0.0164355
0.0290643
-0.017396
0.0283994
-0.0183748
0.0276571
-0.0193732
0.0268325
-0.0203922
0.0259154
-0.0214283
0.0248791
-0.0224586
0.0236639
-0.0234188
0.0221229
-0.024121
0.0199971
-0.0242205
0.0169774
-0.0232269
-0.0212132
0.0131865
0.0253505
0.00476716
-0.0249673
0.0257299
0.00471709
0.0261052
0.00466354
0.0264759
0.00460548
0.0268417
0.00454258
0.0272024
0.00447461
0.0275574
0.00440135
0.0279066
0.00432256
0.0282494
0.00423801
0.0285855
0.00414743
0.0289145
0.00405058
0.029236
0.00394718
0.0295496
0.00383695
0.0298548
0.00371958
0.0301513
0.00359477
0.0304386
0.00346217
0.0307162
0.00332146
0.0309839
0.00317226
0.031241
0.00301419
0.0314873
0.00284685
0.0317222
0.00266983
0.0319453
0.00248268
0.0321563
0.00228494
0.0323546
0.00207613
0.03254
0.00185575
0.0327119
0.00162328
0.0328702
0.00137816
0.0330143
0.00111982
0.033144
0.000847664
0.0332591
0.000561071
0.0333592
0.000259392
0.0334442
-5.80641e-05
0.0335138
-0.000391621
0.0335681
-0.000742289
0.0336072
-0.0011109
0.033631
-0.00149824
0.0336397
-0.00190508
0.0336335
-0.00233223
0.0336125
-0.00278049
0.033577
-0.00325069
0.0335271
-0.00374364
0.033463
-0.00426013
0.0333846
-0.00480092
0.0332916
-0.0053667
0.0331836
-0.00595806
0.0330595
-0.00657545
0.0329181
-0.00721919
0.0327574
-0.00788937
0.032575
-0.00858584
0.0323679
-0.00930819
0.0321326
-0.0100557
0.0318648
-0.0108272
0.0315599
-0.0116213
0.0312128
-0.0124363
0.030818
-0.0132702
0.0303703
-0.0141209
0.0298643
-0.0149867
0.0292954
-0.0158666
0.0286597
-0.0167603
0.0279538
-0.0176689
0.0271729
-0.0185923
0.0263063
-0.0195256
0.0253293
-0.0204512
0.024184
-0.0213133
0.0227562
-0.0219911
0.0208074
-0.0221721
0.0180155
-0.0214287
0.0142657
-0.019477
-0.0170445
0.010097
0.025328
0.00438285
-0.0249437
0.0257085
0.0043366
0.0260848
0.00428723
0.0264566
0.00423369
0.0268235
0.00417566
0.0271852
0.00411292
0.0275413
0.00404524
0.0278915
0.00397242
0.0282352
0.00389422
0.0285723
0.00381038
0.0289022
0.00372067
0.0292246
0.00362482
0.029539
0.00352254
0.029845
0.00341354
0.0301423
0.00329752
0.0304303
0.00317414
0.0307087
0.00304306
0.030977
0.00290393
0.0312348
0.00275636
0.0314817
0.00259996
0.0317173
0.00243429
0.031941
0.00225892
0.0321526
0.00207337
0.0323516
0.00187716
0.0325376
0.00166977
0.0327102
0.00145065
0.0328691
0.00121923
0.033014
0.00097492
0.0331446
0.000717079
0.0332606
0.000445047
0.0333619
0.000158115
0.0334481
-0.000144323
0.0335194
-0.000462892
0.0335757
-0.000798557
0.0336169
-0.00115214
0.0336431
-0.00152444
0.0336543
-0.00191625
0.0336504
-0.00232835
0.0336315
-0.00276152
0.0335973
-0.00321653
0.0335477
-0.00369408
0.0334824
-0.00419481
0.0334008
-0.00471931
0.0333021
-0.00526801
0.0331853
-0.00584123
0.033049
-0.00643913
0.0328914
-0.00706164
0.0327106
-0.0077085
0.0325039
-0.00837914
0.0322684
-0.00907275
0.0320009
-0.00978817
0.0316976
-0.0105239
0.0313546
-0.0112782
0.0309674
-0.0120492
0.030532
-0.0128347
0.0300442
-0.0136332
0.0295009
-0.0144434
0.0288993
-0.0152649
0.028237
-0.0160981
0.0275101
-0.0169419
0.026708
-0.0177902
0.0258051
-0.0186227
0.024746
-0.0193921
0.0234186
-0.0199859
0.0216225
-0.020195
0.0190518
-0.0196014
0.015489
-0.017866
0.0112789
-0.0152669
-0.0130008
0.00723521
0.0253539
0.00399634
-0.0249674
0.0257367
0.00395384
0.0261153
0.00390859
0.0264895
0.00385952
0.0268588
0.0038063
0.027223
0.00374873
0.0275817
0.00368659
0.0279344
0.00361967
0.0282809
0.00354775
0.0286207
0.00347059
0.0289534
0.00338795
0.0292787
0.00329957
0.029596
0.00320517
0.0299051
0.00310448
0.0302054
0.00299718
0.0304966
0.00288295
0.0307782
0.00276147
0.0310498
0.00263237
0.0313109
0.00249527
0.031561
0.00234978
0.0317999
0.00219548
0.0320269
0.00203191
0.0322416
0.0018586
0.0324437
0.00167506
0.0326328
0.00148075
0.0328083
0.00127512
0.0329699
0.00105758
0.0331173
0.000827504
0.0332502
0.000584234
0.0333682
0.000327079
0.033471
5.52816e-05
0.0335583
-0.000231667
0.0336301
-0.00053463
0.033686
-0.000854491
0.0337259
-0.00119205
0.0337496
-0.00154811
0.0337568
-0.00192344
0.0337472
-0.00231881
0.0337207
-0.00273496
0.0336767
-0.00317259
0.033615
-0.00363232
0.0335348
-0.0041147
0.0334357
-0.00462012
0.0333165
-0.00514888
0.0331764
-0.00570108
0.0330139
-0.00627661
0.0328274
-0.00687516
0.032615
-0.00749613
0.0323745
-0.00813866
0.0321034
-0.00880159
0.0317987
-0.00948346
0.0314573
-0.0101826
0.0310763
-0.0108972
0.0306525
-0.0116254
0.0301834
-0.0123657
0.0296675
-0.0131172
0.0291037
-0.0138795
0.028491
-0.0146523
0.0278261
-0.0154332
0.0270983
-0.0162142
0.0262808
-0.0169727
0.0253155
-0.0176574
0.0240934
-0.01817
0.0224262
-0.0183187
0.0200229
-0.0177917
0.0166526
-0.016231
0.0124789
-0.0136923
0.00823817
-0.0110262
-0.00939014
0.0046275
0.0254457
0.00360555
-0.025055
0.0258329
0.00356667
0.0262161
0.0035254
0.026595
0.00348065
0.0269692
0.00343212
0.0273383
0.00337958
0.027702
0.00332285
0.02806
0.00326173
0.0284117
0.003196
0.0287569
0.00312544
0.029095
0.00304981
0.0294257
0.00296888
0.0297485
0.00288237
0.030063
0.00279
0.0303687
0.00269149
0.0306651
0.00258652
0.0309518
0.00247477
0.0312283
0.00235589
0.0314941
0.00222951
0.0317486
0.00209522
0.0319915
0.00195263
0.0322221
0.00180128
0.03244
0.0016407