/*--------------------------------*- C++ -*----------------------------------*\
| =========                 |                                                 |
| \\      /  F ield         | OpenFOAM: The Open Source CFD Toolbox           |
|  \\    /   O peration     | Version:  2312                                  |
|   \\  /    A nd           | Website:  www.openfoam.com                      |
|    \\/     M anipulation  |                                                 |
\*---------------------------------------------------------------------------*/
FoamFile
{
    version     2.0;
    format      ascii;
    arch        "LSB;label=32;scalar=64";
    class       volVectorField;
    location    "1200";
    object      U;
}
// * * * * * * * * * * * * * * * * * * * * * * * * * * * * * * * * * * * * * //

dimensions      [0 1 -1 0 0 0 0];

internalField   nonuniform List<vector> 
76025
(
(0.992589 -0.190914 0)
(0.997318 -0.191986 1.45563e-20)
(1.00217 -0.192914 0)
(1.00715 -0.193768 0)
(1.01185 -0.194447 -2.57676e-20)
(1.01688 -0.195041 -4.85603e-20)
(1.02169 -0.195511 8.33256e-20)
(1.02657 -0.195815 -3.50811e-20)
(1.03148 -0.196049 -1.08958e-20)
(1.03647 -0.196178 1.03918e-20)
(1.0414 -0.196177 -2.45483e-23)
(1.04632 -0.196021 2.72751e-20)
(1.05128 -0.195796 -3.66068e-20)
(1.05626 -0.195372 0)
(1.06152 -0.194856 7.89639e-21)
(1.06655 -0.194278 0)
(1.07173 -0.193502 0)
(1.07679 -0.192695 0)
(1.08185 -0.191705 6.17458e-21)
(1.0868 -0.190753 -5.58929e-21)
(1.09183 -0.189551 -5.1355e-21)
(1.09702 -0.188228 -1.39364e-20)
(1.1022 -0.186801 9.12752e-21)
(1.1074 -0.185284 1.11617e-20)
(1.11259 -0.183704 -8.80753e-22)
(1.11765 -0.18212 2.0712e-21)
(1.1229 -0.180233 -7.73973e-21)
(1.12793 -0.178359 7.14346e-21)
(1.13288 -0.176366 -1.89864e-21)
(1.13777 -0.174166 1.52486e-21)
(1.14253 -0.17212 1.06496e-21)
(1.14716 -0.170069 -7.16205e-22)
(1.15187 -0.167595 6.58369e-22)
(1.15642 -0.165355 -5.1015e-22)
(1.16081 -0.162901 1.73875e-21)
(1.16501 -0.160682 2.229e-22)
(1.16911 -0.158371 -6.65375e-22)
(1.17321 -0.155648 4.5517e-22)
(1.17725 -0.153149 3.36551e-23)
(1.18117 -0.150562 -9.081e-22)
(1.18494 -0.148187 6.152e-22)
(1.18863 -0.145773 -3.52547e-22)
(1.19238 -0.143019 7.57272e-22)
(1.19613 -0.140555 -1.66939e-21)
(1.19985 -0.13806 -1.85184e-21)
(1.2036 -0.135845 3.7058e-21)
(1.20749 -0.133459 4.09733e-21)
(1.21158 -0.131276 -1.25141e-20)
(1.21581 -0.129198 8.77668e-21)
(1.22023 -0.127267 3.27539e-22)
(1.22489 -0.125444 -2.34785e-20)
(1.22983 -0.12365 -9.90235e-21)
(1.23512 -0.121872 9.95415e-21)
(1.24077 -0.120137 0)
(1.24687 -0.118482 -1.1127e-20)
(1.25338 -0.117153 -1.10934e-20)
(1.26041 -0.115738 8.86603e-23)
(1.26806 -0.114475 -1.20181e-20)
(1.27629 -0.113343 1.34072e-20)
(1.28512 -0.112119 -4.10826e-20)
(1.29473 -0.110582 -2.75659e-20)
(1.30592 -0.109373 1.86015e-21)
(1.31833 -0.10798 0)
(1.33203 -0.106354 8.63823e-20)
(1.34764 -0.104155 -3.88428e-20)
(1.36542 -0.102175 1.88955e-20)
(1.38511 -0.0992752 -4.3797e-20)
(1.40814 -0.0940019 4.55751e-20)
(1.43638 -0.0895926 1.02289e-19)
(0.991242 -0.199572 1.56254e-20)
(0.996269 -0.200674 4.41601e-20)
(1.00135 -0.201627 -5.87642e-20)
(1.00648 -0.202421 0)
(1.01161 -0.203135 6.56416e-20)
(1.01681 -0.203675 -1.96624e-21)
(1.02202 -0.204115 -4.99571e-20)
(1.02719 -0.204413 0)
(1.03237 -0.20457 -5.41962e-23)
(1.03758 -0.20461 -1.06352e-20)
(1.04282 -0.204525 1.01161e-20)
(1.04804 -0.204303 1.30664e-23)
(1.05324 -0.20396 0)
(1.05841 -0.203491 0)
(1.06362 -0.202839 1.51275e-20)
(1.06883 -0.202127 -3.87624e-20)
(1.07406 -0.201232 -7.02444e-21)
(1.07926 -0.200264 1.9218e-20)
(1.08446 -0.199119 -1.26958e-20)
(1.08959 -0.19791 5.70768e-21)
(1.09473 -0.196556 -4.60972e-21)
(1.09982 -0.195079 9.88268e-21)
(1.10489 -0.19349 -8.03069e-21)
(1.10994 -0.191794 1.12994e-20)
(1.11498 -0.189988 -7.16001e-21)
(1.11999 -0.188116 -8.36769e-21)
(1.12496 -0.186107 5.38723e-21)
(1.12986 -0.184043 0)
(1.13469 -0.181891 0)
(1.13944 -0.179648 1.0801e-21)
(1.14412 -0.17731 0)
(1.14878 -0.174911 2.34674e-22)
(1.15333 -0.172448 2.71155e-22)
(1.15777 -0.16997 -5.72129e-22)
(1.16212 -0.167472 1.06255e-22)
(1.16642 -0.164903 -5.83077e-22)
(1.17064 -0.162277 0)
(1.17476 -0.159623 -2.03507e-21)
(1.17882 -0.15699 1.70568e-21)
(1.18283 -0.154405 -1.53113e-21)
(1.18679 -0.151835 1.0271e-21)
(1.19071 -0.149263 6.71217e-26)
(1.19462 -0.146731 4.49152e-22)
(1.19854 -0.144303 -4.18184e-22)
(1.20253 -0.141931 3.75016e-21)
(1.20659 -0.139616 -1.93825e-21)
(1.21075 -0.137343 -2.07998e-21)
(1.21504 -0.135199 4.23923e-21)
(1.21947 -0.13316 1.32584e-20)
(1.22407 -0.131214 1.52578e-22)
(1.22886 -0.129364 1.41208e-20)
(1.23388 -0.127607 -4.96113e-21)
(1.23919 -0.125958 -1.55165e-20)
(1.24485 -0.124449 1.00821e-20)
(1.2509 -0.12307 0)
(1.25742 -0.121832 3.33728e-20)
(1.26445 -0.12069 6.28843e-22)
(1.27209 -0.119734 -1.15961e-20)
(1.2804 -0.118922 -1.19956e-20)
(1.28948 -0.118171 0)
(1.29958 -0.117353 1.39399e-20)
(1.31095 -0.1165 4.35731e-20)
(1.32374 -0.11573 0)
(1.33812 -0.114844 -3.36359e-20)
(1.35449 -0.113659 1.61812e-20)
(1.37338 -0.112239 -3.80846e-20)
(1.39496 -0.110258 1.95786e-20)
(1.41977 -0.106991 -4.62353e-20)
(1.44859 -0.105032 -5.09728e-20)
(0.989637 -0.208883 -7.8836e-20)
(0.994964 -0.210006 4.74375e-20)
(1.00034 -0.210977 -1.49933e-20)
(1.00573 -0.211775 5.6139e-20)
(1.01116 -0.212442 -6.96484e-20)
(1.0166 -0.212972 -5.14587e-20)
(1.02207 -0.213368 6.38342e-20)
(1.02757 -0.213622 0)
(1.03308 -0.213734 -5.41405e-23)
(1.03858 -0.213705 0)
(1.04408 -0.213541 -1.02752e-20)
(1.04957 -0.213236 9.72433e-21)
(1.05504 -0.212789 4.48558e-20)
(1.06049 -0.212207 -3.56446e-20)
(1.06591 -0.21148 8.14528e-21)
(1.07131 -0.210619 2.23109e-20)
(1.0767 -0.209621 -7.55309e-21)
(1.08206 -0.208486 -6.61993e-21)
(1.0874 -0.207218 -1.75981e-20)
(1.09272 -0.205813 1.1637e-20)
(1.09799 -0.204287 4.96853e-21)
(1.10321 -0.202641 -8.70129e-21)
(1.10838 -0.200878 4.72715e-21)
(1.11349 -0.199003 3.52315e-21)
(1.11856 -0.197022 0)
(1.12357 -0.194944 -2.59634e-21)
(1.1285 -0.192779 -1.97592e-21)
(1.13337 -0.190522 2.44455e-21)
(1.13817 -0.188176 0)
(1.14291 -0.185753 -1.91875e-21)
(1.14758 -0.183244 3.97455e-22)
(1.15219 -0.180688 -2.64946e-22)
(1.1567 -0.178102 0)
(1.16113 -0.175473 3.0113e-22)
(1.1655 -0.172806 -1.82842e-21)
(1.16981 -0.170084 1.30214e-21)
(1.17404 -0.167354 0)
(1.1782 -0.164618 1.67043e-21)
(1.1823 -0.161879 -1.77248e-21)
(1.18637 -0.159168 -3.28303e-22)
(1.1904 -0.156485 0)
(1.1944 -0.153847 -7.94253e-22)
(1.1984 -0.151257 -4.37649e-22)
(1.20242 -0.14872 4.49536e-22)
(1.20648 -0.146252 -2.7744e-21)
(1.2106 -0.143873 -1.9684e-21)
(1.21478 -0.141597 4.08173e-21)
(1.21907 -0.139438 -4.32305e-21)
(1.2235 -0.137404 4.32311e-21)
(1.22807 -0.135501 -4.38972e-21)
(1.23283 -0.133735 -4.67516e-21)
(1.23783 -0.132108 9.29996e-21)
(1.2431 -0.130624 0)
(1.24872 -0.129294 9.72458e-21)
(1.25474 -0.128121 -5.17971e-22)
(1.26123 -0.127133 -1.07504e-20)
(1.26827 -0.12633 -1.1159e-20)
(1.27596 -0.125717 2.25435e-20)
(1.28441 -0.125269 7.43182e-22)
(1.29374 -0.124942 1.16461e-20)
(1.30415 -0.124688 -2.43306e-20)
(1.31591 -0.124545 -1.16221e-20)
(1.32925 -0.124479 1.20258e-21)
(1.34442 -0.124379 -1.45409e-20)
(1.36184 -0.124131 -1.66906e-20)
(1.38202 -0.123648 -5.08041e-20)
(1.40521 -0.122705 0)
(1.43171 -0.120637 -2.31003e-20)
(1.46133 -0.119456 2.22213e-20)
(0.987746 -0.218768 0)
(0.993427 -0.219893 1.58637e-20)
(0.999155 -0.220861 7.5419e-20)
(1.00488 -0.221654 -5.98669e-20)
(1.01061 -0.222295 -4.11587e-20)
(1.01637 -0.222792 6.83654e-20)
(1.02214 -0.223142 -1.27762e-20)
(1.02793 -0.223341 1.22245e-20)
(1.03373 -0.223391 1.15851e-20)
(1.03954 -0.223289 4.29151e-20)
(1.04533 -0.223038 -4.27533e-20)
(1.05111 -0.222636 -3.82176e-20)
(1.05687 -0.222082 1.08933e-20)
(1.06261 -0.221378 3.47483e-20)
(1.06832 -0.220523 -2.4844e-20)
(1.07399 -0.21952 7.48098e-21)
(1.07963 -0.218373 -6.92474e-21)
(1.08522 -0.217081 -6.37718e-21)
(1.09076 -0.215648 1.74336e-20)
(1.09626 -0.214077 -6.08809e-21)
(1.1017 -0.212373 -5.02718e-21)
(1.10709 -0.21054 0)
(1.11242 -0.208581 -7.09088e-21)
(1.11768 -0.206506 3.81551e-21)
(1.12286 -0.204321 5.44428e-21)
(1.12797 -0.202034 4.00225e-21)
(1.133 -0.199648 -8.57194e-21)
(1.13795 -0.197168 3.12868e-21)
(1.14282 -0.194601 0)
(1.1476 -0.191959 1.356e-21)
(1.1523 -0.189251 -3.60273e-22)
(1.15691 -0.186492 -1.36157e-23)
(1.16145 -0.18369 -8.04806e-22)
(1.1659 -0.180854 2.62838e-21)
(1.17028 -0.177979 -4.31394e-22)
(1.17459 -0.175075 0)
(1.17881 -0.172167 0)
(1.18296 -0.169265 6.28693e-22)
(1.18706 -0.166381 6.3911e-22)
(1.19111 -0.163534 3.75396e-22)
(1.19511 -0.160737 -1.25584e-23)
(1.19909 -0.157997 4.0783e-22)
(1.20306 -0.155322 0)
(1.20704 -0.152725 -2.33564e-23)
(1.21104 -0.150227 0)
(1.21509 -0.147839 2.02315e-21)
(1.21921 -0.145568 9.1872e-23)
(1.22343 -0.143424 -6.28971e-21)
(1.22776 -0.141424 0)
(1.23225 -0.139575 -4.51566e-21)
(1.23693 -0.137887 4.44787e-21)
(1.24184 -0.136368 -9.39092e-21)
(1.24704 -0.135029 0)
(1.25258 -0.133885 -2.88974e-20)
(1.25855 -0.132952 -4.52468e-22)
(1.26501 -0.132244 9.7516e-21)
(1.27206 -0.131763 1.00274e-20)
(1.27981 -0.131515 0)
(1.28837 -0.131495 0)
(1.29792 -0.13169 -1.17422e-20)
(1.30866 -0.132074 2.45167e-20)
(1.32084 -0.132633 2.57668e-20)
(1.33477 -0.13334 0)
(1.3508 -0.13413 -2.61402e-20)
(1.36939 -0.134895 0)
(1.39095 -0.135467 5.15286e-20)
(1.41562 -0.135675 -1.69576e-20)
(1.44337 -0.134843 -2.16096e-20)
(1.4731 -0.134923 -2.20041e-20)
(0.985896 -0.229251 0)
(0.991869 -0.230352 0)
(0.99792 -0.231291 1.58186e-20)
(1.00398 -0.23205 -5.90561e-20)
(1.01005 -0.23265 7.31745e-20)
(1.01614 -0.233097 -1.36841e-20)
(1.02225 -0.233389 0)
(1.02836 -0.233522 -1.24017e-20)
(1.03448 -0.233494 0)
(1.04059 -0.233304 -2.16739e-20)
(1.04669 -0.232953 1.26069e-21)
(1.05277 -0.23244 2.03639e-20)
(1.05884 -0.231765 0)
(1.06487 -0.230928 -1.67587e-20)
(1.07088 -0.229932 4.8429e-20)
(1.07683 -0.228778 -3.01588e-20)
(1.08274 -0.227469 3.46733e-20)
(1.08859 -0.226007 -6.80619e-21)
(1.09438 -0.224396 5.65421e-21)
(1.10011 -0.22264 -5.37156e-21)
(1.10576 -0.220743 -4.34135e-21)
(1.11135 -0.21871 1.29455e-20)
(1.11685 -0.216546 7.3304e-21)
(1.12228 -0.21426 0)
(1.12761 -0.211858 -4.87281e-21)
(1.13286 -0.209349 -1.37964e-21)
(1.13801 -0.206739 5.82167e-21)
(1.14307 -0.204037 -1.42434e-21)
(1.14802 -0.201253 1.16573e-21)
(1.15288 -0.198396 -1.69933e-21)
(1.15763 -0.195479 -2.68784e-22)
(1.16229 -0.192511 3.49345e-22)
(1.16685 -0.189504 0)
(1.17131 -0.186479 -5.97052e-22)
(1.17569 -0.183417 -7.91022e-22)
(1.17998 -0.180338 0)
(1.18418 -0.177261 1.26577e-21)
(1.1883 -0.174201 -2.02998e-21)
(1.19236 -0.171171 1.37689e-21)
(1.19635 -0.168186 -7.83065e-22)
(1.2003 -0.165259 -1.41538e-23)
(1.20422 -0.1624 -6.75916e-22)
(1.20811 -0.159623 2.22698e-22)
(1.21201 -0.156941 9.42311e-22)
(1.21592 -0.15437 -2.02656e-23)
(1.21987 -0.151923 6.0522e-21)
(1.22388 -0.149613 0)
(1.22798 -0.147455 4.25664e-21)
(1.23219 -0.145466 9.09924e-23)
(1.23656 -0.143658 -4.3157e-21)
(1.24112 -0.142045 0)
(1.24593 -0.140639 -4.5401e-21)
(1.25103 -0.139454 4.47104e-21)
(1.2565 -0.138508 9.40736e-21)
(1.26241 -0.137814 0)
(1.26885 -0.137389 -1.92326e-20)
(1.27591 -0.137245 1.90311e-20)
(1.28371 -0.137395 -1.93785e-20)
(1.2924 -0.137844 3.66164e-22)
(1.30216 -0.138592 0)
(1.31323 -0.139627 -1.08659e-20)
(1.32589 -0.140942 1.18299e-20)
(1.34053 -0.14251 1.03327e-20)
(1.35755 -0.144273 2.63057e-20)
(1.37737 -0.146113 -3.89887e-20)
(1.40023 -0.147834 2.94659e-20)
(1.42595 -0.149271 -1.52473e-20)
(1.45416 -0.149673 1.4407e-20)
(1.48297 -0.15126 6.16635e-20)
(0.984328 -0.240433 -6.86514e-20)
(0.990534 -0.241501 2.60373e-21)
(0.996845 -0.242397 6.59131e-20)
(1.00319 -0.243102 0)
(1.00957 -0.243639 -1.46303e-20)
(1.01598 -0.244018 0)
(1.02241 -0.244234 2.59004e-20)
(1.02885 -0.244284 -1.27405e-21)
(1.03529 -0.244163 -3.6268e-20)
(1.04173 -0.24387 1.11577e-20)
(1.04816 -0.243404 1.05865e-20)
(1.05456 -0.242766 9.79953e-21)
(1.06093 -0.241957 0)
(1.06727 -0.240975 0)
(1.07356 -0.239823 -8.06802e-21)
(1.07981 -0.238503 -7.46326e-21)
(1.086 -0.237018 1.29198e-20)
(1.09212 -0.235371 -1.29124e-20)
(1.09817 -0.233565 -1.11309e-20)
(1.10415 -0.231606 9.46757e-21)
(1.11004 -0.229499 -1.81811e-20)
(1.11584 -0.227249 7.39247e-22)
(1.12155 -0.224864 6.93929e-21)
(1.12715 -0.222351 2.65519e-21)
(1.13266 -0.219717 4.20176e-21)
(1.13806 -0.216972 -4.21855e-21)
(1.14334 -0.214125 -2.2643e-21)
(1.14852 -0.211185 2.27634e-21)
(1.15357 -0.208163 0)
(1.15852 -0.20507 0)
(1.16334 -0.201916 1.28201e-21)
(1.16805 -0.198716 6.23473e-22)
(1.17265 -0.195482 -1.10676e-21)
(1.17712 -0.192234 -1.9225e-21)
(1.1815 -0.188948 1.90163e-21)
(1.18577 -0.185652 0)
(1.18995 -0.182368 -1.27265e-21)
(1.19403 -0.179111 -2.32335e-21)
(1.19803 -0.175896 1.52176e-21)
(1.20196 -0.172739 -3.17188e-23)
(1.20582 -0.169654 -1.445e-22)
(1.20965 -0.166656 6.78835e-22)
(1.21344 -0.163758 4.92843e-22)
(1.21722 -0.160977 1.0124e-21)
(1.221 -0.158329 -5.08075e-21)
(1.22482 -0.155827 -2.09093e-23)
(1.2287 -0.153489 0)
(1.23266 -0.151328 -4.26297e-21)
(1.23674 -0.149363 1.29509e-20)
(1.24098 -0.147608 -8.56012e-21)
(1.24543 -0.146079 -4.37388e-21)
(1.25012 -0.144791 5.35869e-23)
(1.25513 -0.143763 -4.52487e-21)
(1.26052 -0.143014 -1.34672e-22)
(1.26637 -0.142565 8.61418e-21)
(1.27277 -0.142434 -8.28864e-21)
(1.27983 -0.142645 -8.81106e-21)
(1.28768 -0.143216 1.75325e-20)
(1.2965 -0.144165 6.78161e-22)
(1.3065 -0.145505 9.17924e-21)
(1.31795 -0.147239 -8.99534e-21)
(1.33122 -0.149368 1.02723e-20)
(1.3467 -0.151865 -2.16317e-20)
(1.36477 -0.154668 -1.11989e-20)
(1.38569 -0.157651 2.36199e-20)
(1.40941 -0.160593 -1.10118e-20)
(1.4354 -0.163352 -4.11328e-20)
(1.46303 -0.165113 -1.92895e-20)
(1.49007 -0.168295 0)
(0.983047 -0.252363 0)
(0.989514 -0.253402 -1.73528e-20)
(0.996086 -0.254251 1.17554e-22)
(1.00269 -0.254895 0)
(1.00935 -0.25536 0)
(1.01605 -0.255654 -1.41729e-20)
(1.02278 -0.255776 3.95854e-20)
(1.02954 -0.25572 -5.07559e-20)
(1.0363 -0.255485 2.46914e-20)
(1.04306 -0.255067 -1.12906e-20)
(1.0498 -0.254466 0)
(1.05652 -0.253682 -9.91687e-21)
(1.06321 -0.252716 9.0266e-21)
(1.06985 -0.251567 0)
(1.07645 -0.250238 0)
(1.08299 -0.248731 -6.71622e-21)
(1.08947 -0.247048 1.24378e-21)
(1.09587 -0.245193 1.24564e-20)
(1.10219 -0.243171 1.03933e-20)
(1.10842 -0.240988 -1.00322e-20)
(1.11455 -0.238648 -4.31814e-21)
(1.12058 -0.236158 -1.36881e-20)
(1.12651 -0.233527 6.00292e-22)
(1.13231 -0.230761 1.7508e-21)
(1.138 -0.227871 -4.44656e-21)
(1.14356 -0.224865 1.19716e-21)
(1.14899 -0.221754 -2.40447e-21)
(1.15429 -0.218549 0)
(1.15946 -0.215261 0)
(1.16449 -0.211902 0)
(1.16938 -0.208487 -3.42959e-22)
(1.17415 -0.205028 -1.30467e-21)
(1.17878 -0.201539 1.55168e-21)
(1.18326 -0.198042 2.35119e-21)
(1.18764 -0.194511 -2.31986e-21)
(1.19189 -0.190982 0)
(1.19603 -0.187478 1.6017e-21)
(1.20006 -0.184014 -7.95679e-22)
(1.20399 -0.180607 0)
(1.20783 -0.177273 9.2037e-22)
(1.2116 -0.174027 -1.80156e-22)
(1.21532 -0.170886 1.20589e-22)
(1.21899 -0.167864 -4.96233e-22)
(1.22264 -0.164978 0)
(1.2263 -0.162246 -2.13149e-21)
(1.22998 -0.159682 2.10113e-21)
(1.23372 -0.157306 0)
(1.23755 -0.155133 -2.75985e-23)
(1.24149 -0.153182 -5.12308e-23)
(1.24561 -0.15147 4.31302e-21)
(1.24993 -0.150017 0)
(1.25452 -0.148843 1.75008e-22)
(1.25943 -0.147968 -4.26172e-21)
(1.26473 -0.147415 -1.21465e-20)
(1.27051 -0.147211 3.36778e-22)
(1.27687 -0.147381 8.3469e-21)
(1.28392 -0.147956 0)
(1.29184 -0.148965 0)
(1.30082 -0.150441 7.05093e-21)
(1.31113 -0.152406 0)
(1.32309 -0.154883 0)
(1.33708 -0.157871 1.15427e-21)
(1.35345 -0.16135 -7.955e-21)
(1.37242 -0.165233 -1.66415e-20)
(1.39398 -0.1694 1.70145e-20)
(1.41773 -0.173616 4.96214e-21)
(1.44293 -0.177797 1.30171e-20)
(1.46898 -0.181047 1.22936e-20)
(1.49331 -0.186072 0)
(0.981906 -0.265072 0)
(0.988717 -0.266088 1.75681e-20)
(0.995616 -0.266896 -4.95682e-20)
(1.00254 -0.267478 1.6674e-20)
(1.0095 -0.267865 0)
(1.0165 -0.268066 4.22853e-20)
(1.02353 -0.268079 -6.77226e-20)
(1.03059 -0.267902 1.44455e-21)
(1.03766 -0.267531 5.99556e-20)
(1.04473 -0.266967 -1.20418e-20)
(1.05179 -0.266207 1.03391e-20)
(1.05882 -0.265253 9.58601e-21)
(1.06582 -0.264105 -2.64576e-20)
(1.07278 -0.262765 3.32022e-20)
(1.07968 -0.261233 -1.58848e-20)
(1.08652 -0.259512 6.10111e-21)
(1.09328 -0.257606 -2.50343e-20)
(1.09997 -0.255518 6.48045e-21)
(1.10655 -0.253253 -4.15112e-21)
(1.11304 -0.250818 5.32553e-21)
(1.11942 -0.248218 1.19975e-21)
(1.12569 -0.245462 1.88971e-20)
(1.13182 -0.242557 1.67271e-21)
(1.13783 -0.239512 -1.10568e-21)
(1.1437 -0.236338 -4.72116e-21)
(1.14943 -0.233045 1.20761e-21)
(1.155 -0.229644 -4.23566e-22)
(1.16043 -0.226147 9.89202e-23)
(1.16571 -0.222568 0)
(1.17083 -0.21892 -1.18597e-21)
(1.1758 -0.215218 1.1943e-21)
(1.18061 -0.211477 2.65888e-22)
(1.18527 -0.207711 -1.27127e-21)
(1.18977 -0.20394 -1.46433e-21)
(1.19413 -0.200147 4.73955e-21)
(1.19836 -0.196367 -3.08252e-21)
(1.20245 -0.192623 2.72825e-21)
(1.20642 -0.188932 -3.6727e-21)
(1.21027 -0.185313 1.86976e-21)
(1.21402 -0.181781 -4.8052e-22)
(1.21769 -0.178355 0)
(1.22129 -0.175051 5.35291e-22)
(1.22484 -0.171887 -5.27944e-22)
(1.22837 -0.168881 -1.09669e-21)
(1.23189 -0.166051 3.28438e-21)
(1.23544 -0.163415 -2.19042e-21)
(1.23904 -0.160992 -2.17064e-21)
(1.24273 -0.158799 0)
(1.24654 -0.156858 -8.56806e-21)
(1.25053 -0.155187 8.43648e-21)
(1.25473 -0.153808 -4.19105e-21)
(1.25919 -0.152743 4.17104e-21)
(1.26399 -0.152018 3.88419e-21)
(1.2692 -0.151658 7.83486e-21)
(1.2749 -0.151696 7.76988e-21)
(1.28122 -0.152167 0)
(1.28829 -0.153114 -6.4332e-21)
(1.29633 -0.154579 0)
(1.30559 -0.156607 -6.57485e-22)
(1.31635 -0.159232 -7.05298e-21)
(1.32895 -0.162485 6.13476e-21)
(1.34368 -0.166358 6.99372e-21)
(1.36075 -0.170831 -5.0792e-21)
(1.38009 -0.175795 7.67843e-22)
(1.40141 -0.181161 -1.52816e-21)
(1.42411 -0.186694 2.39928e-20)
(1.44747 -0.192398 7.11624e-21)
(1.47102 -0.197317 1.15703e-20)
(1.49193 -0.204333 -1.11325e-20)
(0.980775 -0.278597 0)
(0.988003 -0.279589 0)
(0.995304 -0.280354 -3.32543e-20)
(1.00261 -0.280876 4.91877e-20)
(1.00994 -0.281183 1.5237e-20)
(1.0173 -0.281287 0)
(1.02468 -0.281187 0)
(1.03208 -0.28088 -1.26412e-20)
(1.03948 -0.280364 2.30896e-20)
(1.04687 -0.279639 -1.76427e-21)
(1.05425 -0.278704 -5.17504e-20)
(1.06161 -0.27756 1.01503e-20)
(1.06893 -0.276209 -8.25418e-21)
(1.07619 -0.274653 1.67924e-20)
(1.0834 -0.272893 -7.06965e-21)
(1.09054 -0.270933 0)
(1.0976 -0.268775 0)
(1.10456 -0.266426 6.12879e-22)
(1.11142 -0.26389 1.39959e-20)
(1.11817 -0.261173 -4.13503e-21)
(1.12479 -0.258283 2.95999e-21)
(1.13129 -0.255228 -2.91247e-21)
(1.13764 -0.252018 -1.80337e-21)
(1.14385 -0.248662 2.38948e-21)
(1.1499 -0.245172 1.21136e-21)
(1.15579 -0.24156 0)
(1.16152 -0.237837 0)
(1.16707 -0.234018 8.03954e-22)
(1.17245 -0.230118 0)
(1.17766 -0.22615 1.76853e-21)
(1.18269 -0.222132 -1.78057e-21)
(1.18754 -0.218079 -1.07187e-21)
(1.19222 -0.214009 1.27886e-21)
(1.19673 -0.209933 3.22303e-21)
(1.20108 -0.20585 -1.61687e-21)
(1.20527 -0.201792 -1.93147e-21)
(1.20931 -0.197784 2.02599e-21)
(1.21321 -0.193843 0)
(1.21698 -0.18999 0)
(1.22064 -0.186243 5.71181e-22)
(1.2242 -0.182619 0)
(1.22769 -0.179139 0)
(1.23112 -0.175821 -1.7353e-21)
(1.23451 -0.172684 2.30483e-21)
(1.2379 -0.169747 -1.16443e-21)
(1.24131 -0.167029 2.23081e-21)
(1.24477 -0.164551 0)
(1.24831 -0.162331 6.58789e-21)
(1.25199 -0.16039 -1.03197e-23)
(1.25583 -0.15875 0)
(1.25989 -0.157434 -8.11516e-21)
(1.26423 -0.156467 2.18701e-23)
(1.26891 -0.15588 -7.64857e-21)
(1.27401 -0.155704 -3.43741e-21)
(1.27966 -0.155981 -6.62864e-21)
(1.28599 -0.156758 6.51068e-21)
(1.29319 -0.158089 6.44521e-21)
(1.30149 -0.160028 0)
(1.31117 -0.162629 -4.99524e-21)
(1.3225 -0.165927 -6.07827e-22)
(1.33571 -0.169953 0)
(1.35093 -0.174689 0)
(1.36811 -0.180116 5.06598e-21)
(1.38692 -0.186122 0)
(1.40691 -0.192679 0)
(1.42753 -0.199565 -3.94246e-21)
(1.44816 -0.206883 -8.45398e-21)
(1.46843 -0.213582 -4.57501e-21)
(1.48486 -0.222278 0)
(0.979606 -0.292998 0)
(0.987291 -0.29396 0)
(0.99505 -0.294677 0)
(1.0028 -0.295133 1.62277e-20)
(1.01057 -0.295358 1.4497e-20)
(1.01835 -0.295362 -1.64874e-21)
(1.02615 -0.295144 -2.79334e-20)
(1.03394 -0.294702 1.27696e-20)
(1.04173 -0.294032 -1.16311e-20)
(1.0495 -0.293135 -2.18337e-20)
(1.05724 -0.292011 0)
(1.06495 -0.290662 0)
(1.0726 -0.289088 -7.15773e-22)
(1.08021 -0.287294 -2.3542e-20)
(1.08774 -0.285282 2.68368e-20)
(1.09519 -0.283055 -1.46358e-21)
(1.10254 -0.280619 -1.15673e-20)
(1.1098 -0.277978 -4.97139e-21)
(1.11693 -0.27514 -6.07184e-22)
(1.12394 -0.27211 0)
(1.13082 -0.268898 -5.31796e-21)
(1.13755 -0.265512 0)
(1.14412 -0.261962 -2.8328e-21)
(1.15052 -0.258261 2.31795e-21)
(1.15676 -0.25442 -1.0593e-21)
(1.16281 -0.250453 6.38068e-22)
(1.16868 -0.246374 -1.61033e-21)
(1.17436 -0.242198 2.07365e-21)
(1.17984 -0.237941 -1.52636e-21)
(1.18513 -0.23362 0)
(1.19022 -0.229252 -2.86175e-21)
(1.19511 -0.224855 -2.11256e-21)
(1.19981 -0.220451 3.29508e-21)
(1.20432 -0.216041 -3.84333e-21)
(1.20865 -0.211639 2.10545e-21)
(1.2128 -0.207277 -2.07724e-21)
(1.21678 -0.202978 -1.05211e-21)
(1.22061 -0.198764 1.21818e-21)
(1.22429 -0.194654 5.73933e-22)
(1.22785 -0.19067 -1.75031e-21)
(1.2313 -0.18683 -1.57563e-22)
(1.23466 -0.183155 0)
(1.23796 -0.179665 5.88852e-22)
(1.24121 -0.17638 -1.17574e-21)
(1.24445 -0.173321 1.16767e-21)
(1.2477 -0.170506 0)
(1.25101 -0.167957 0)
(1.25439 -0.165694 2.2096e-21)
(1.25791 -0.16374 -4.36184e-21)
(1.26159 -0.162116 -8.25314e-21)
(1.26551 -0.160851 1.58997e-20)
(1.26971 -0.159972 -3.69039e-21)
(1.27429 -0.159516 3.63106e-21)
(1.27935 -0.159524 3.44204e-21)
(1.28504 -0.160045 -5.88951e-21)
(1.29152 -0.161138 5.78246e-21)
(1.29902 -0.162866 0)
(1.30775 -0.165284 -3.81274e-21)
(1.31794 -0.168446 -4.17885e-22)
(1.32975 -0.172383 3.4417e-21)
(1.34324 -0.17712 0)
(1.3583 -0.182636 0)
(1.37464 -0.188926 0)
(1.39183 -0.195916 1.21297e-21)
(1.40947 -0.203654 -3.45542e-22)
(1.42723 -0.211934 3.28985e-21)
(1.44452 -0.220914 -5.17245e-21)
(1.46102 -0.229145 4.32759e-21)
(1.47103 -0.239507 1.61136e-21)
(0.978448 -0.308375 0)
(0.986612 -0.309299 3.58026e-20)
(0.994856 -0.30996 -4.42002e-20)
(1.00309 -0.31034 2.3522e-20)
(1.01134 -0.310472 -4.68273e-20)
(1.0196 -0.310366 -1.42504e-20)
(1.02786 -0.31002 -1.32719e-20)
(1.03611 -0.30943 0)
(1.04434 -0.308594 2.30898e-20)
(1.05254 -0.307513 2.08946e-20)
(1.0607 -0.306185 -2.03986e-20)
(1.0688 -0.304614 8.63089e-21)
(1.07685 -0.302801 -7.01117e-21)
(1.08483 -0.300749 9.07978e-21)
(1.09272 -0.298462 2.50727e-20)
(1.10051 -0.295944 -1.53602e-21)
(1.1082 -0.293201 -1.49955e-21)
(1.11576 -0.290239 -8.96023e-21)
(1.1232 -0.287066 -3.70874e-21)
(1.13049 -0.28369 -4.694e-21)
(1.13763 -0.280121 5.44728e-21)
(1.1446 -0.276369 0)
(1.1514 -0.272445 7.83505e-22)
(1.15802 -0.268362 0)
(1.16444 -0.264134 -8.98469e-23)
(1.17066 -0.259775 -6.41386e-22)
(1.17668 -0.2553 5.84643e-22)
(1.18248 -0.250728 0)
(1.18806 -0.246075 1.48133e-21)
(1.19343 -0.241361 3.18795e-21)
(1.19858 -0.236604 -3.2074e-21)
(1.20351 -0.231825 1.73107e-21)
(1.20821 -0.227049 -4.36968e-21)
(1.21272 -0.222271 8.74503e-21)
(1.21701 -0.217518 -2.29211e-21)
(1.22112 -0.212821 0)
(1.22503 -0.208204 -1.34251e-21)
(1.22877 -0.203689 1.43993e-22)
(1.23235 -0.199297 1.93411e-21)
(1.23578 -0.195051 -1.62726e-21)
(1.2391 -0.190971 3.11735e-22)
(1.24231 -0.187079 -9.96158e-22)
(1.24545 -0.183395 6.46735e-22)
(1.24854 -0.179941 0)
(1.25161 -0.176739 0)
(1.25469 -0.173809 0)
(1.25782 -0.171173 2.41641e-21)
(1.26103 -0.168853 2.31737e-21)
(1.26438 -0.166872 0)
(1.26792 -0.165256 4.26165e-21)
(1.27172 -0.164035 3.9642e-21)
(1.27586 -0.163243 3.61717e-21)
(1.28044 -0.162921 0)
(1.2856 -0.163119 0)
(1.2915 -0.163894 -5.17662e-21)
(1.29833 -0.165308 5.07853e-21)
(1.30626 -0.167421 0)
(1.31546 -0.170284 3.79845e-21)
(1.32599 -0.173938 -3.08199e-21)
(1.33785 -0.178411 -7.83083e-22)
(1.35088 -0.183726 3.3806e-22)
(1.36478 -0.189885 -3.2903e-22)
(1.37919 -0.196926 0)
(1.39379 -0.20485 8.13846e-23)
(1.40834 -0.213768 -1.74427e-21)
(1.42275 -0.22348 6.28758e-21)
(1.43625 -0.234113 6.64288e-21)
(1.44824 -0.243527 -1.85e-21)
(1.44955 -0.25555 -1.64356e-21)
(0.977366 -0.324839 9.65441e-21)
(0.986035 -0.325713 0)
(0.994789 -0.326305 8.69958e-21)
(1.00354 -0.326597 -3.98031e-20)
(1.01229 -0.326621 6.87854e-20)
(1.02106 -0.326389 -1.50234e-20)
(1.02982 -0.325898 1.33656e-20)
(1.03857 -0.325144 -2.35019e-20)
(1.04729 -0.324126 1.195e-20)
(1.05597 -0.322841 1.04999e-20)
(1.06459 -0.32129 9.02418e-21)
(1.07316 -0.319476 -2.46503e-20)
(1.08164 -0.317402 8.74283e-21)
(1.09004 -0.315069 -1.87306e-20)
(1.09834 -0.312483 -4.46701e-21)
(1.10652 -0.309649 1.6091e-21)
(1.11458 -0.306572 9.12406e-21)
(1.12249 -0.30326 0)
(1.13026 -0.299721 0)
(1.13787 -0.295966 1.44218e-21)
(1.1453 -0.292004 1.60501e-21)
(1.15254 -0.287848 4.23938e-22)
(1.15959 -0.283511 -1.22624e-22)
(1.16643 -0.279006 2.04289e-21)
(1.17305 -0.274351 -2.04657e-21)
(1.17945 -0.269559 1.18895e-21)
(1.18561 -0.26465 1.45512e-21)
(1.19154 -0.259642 0)
(1.19723 -0.254553 -1.48366e-21)
(1.20268 -0.249405 -4.03648e-21)
(1.20788 -0.244219 -3.81031e-22)
(1.21283 -0.239017 4.46973e-21)
(1.21754 -0.233828 -2.74252e-21)
(1.22202 -0.228641 0)
(1.22627 -0.223497 1.4668e-21)
(1.2303 -0.218425 -1.49501e-21)
(1.23413 -0.213452 1.33882e-21)
(1.23776 -0.2086 -2.87889e-21)
(1.24121 -0.203893 0)
(1.2445 -0.199354 -3.78092e-22)
(1.24766 -0.195005 3.58415e-22)
(1.25071 -0.190869 -5.49685e-22)
(1.25367 -0.186969 2.07961e-21)
(1.25658 -0.183327 -4.06478e-21)
(1.25946 -0.179965 2.66255e-21)
(1.26236 -0.176906 2.5254e-21)
(1.26532 -0.174173 -2.38351e-21)
(1.26839 -0.171788 4.6862e-21)
(1.27162 -0.169777 -4.53787e-21)
(1.27509 -0.168167 -1.03432e-20)
(1.27887 -0.166994 1.04038e-22)
(1.28309 -0.166295 -3.61088e-21)
(1.28785 -0.166118 0)
(1.29331 -0.166515 0)
(1.29961 -0.167541 -4.51558e-21)
(1.30687 -0.169248 6.17092e-21)
(1.31519 -0.171683 -3.53309e-21)
(1.32455 -0.174883 0)
(1.33488 -0.178884 4.64737e-22)
(1.34596 -0.183718 2.15698e-22)
(1.35752 -0.189432 2.19023e-22)
(1.36921 -0.19608 1.1608e-21)
(1.38079 -0.20377 -2.72451e-21)
(1.39213 -0.212592 9.81746e-22)
(1.40317 -0.222681 1.05793e-20)
(1.41388 -0.233824 -9.90273e-21)
(1.42295 -0.245957 -4.53109e-21)
(1.42883 -0.256256 0)
(1.41717 -0.270301 0)
(0.976429 -0.342516 -9.70717e-21)
(0.985633 -0.34333 -4.49171e-20)
(0.994927 -0.343839 3.55278e-20)
(1.00421 -0.344027 0)
(1.01351 -0.343926 7.58445e-21)
(1.02281 -0.343549 2.68635e-20)
(1.03211 -0.342894 -2.0419e-20)
(1.04139 -0.341955 2.83828e-20)
(1.05063 -0.340731 -2.25177e-20)
(1.05983 -0.33922 0)
(1.06896 -0.337422 -4.87367e-21)
(1.07802 -0.33534 0)
(1.08699 -0.332976 -5.61741e-21)
(1.09586 -0.330334 1.90745e-20)
(1.10461 -0.327419 0)
(1.11322 -0.324237 0)
(1.12169 -0.320794 0)
(1.13001 -0.317099 3.27166e-21)
(1.13814 -0.313161 -4.27441e-21)
(1.14609 -0.308991 -1.44626e-21)
(1.15385 -0.3046 0)
(1.16139 -0.300001 0)
(1.16871 -0.295209 0)
(1.1758 -0.290238 -5.1393e-21)
(1.18264 -0.285107 6.58767e-21)
(1.18923 -0.279835 -3.77444e-21)
(1.19556 -0.27444 -3.43815e-21)
(1.20163 -0.268944 4.11916e-21)
(1.20742 -0.263369 -4.13467e-21)
(1.21294 -0.257738 2.67554e-21)
(1.21819 -0.252075 -5.37041e-21)
(1.22316 -0.246404 2.34779e-21)
(1.22786 -0.240754 5.94424e-21)
(1.2323 -0.23512 3.29795e-21)
(1.23649 -0.229545 -1.45764e-21)
(1.24044 -0.22406 1.48632e-21)
(1.24415 -0.218693 0)
(1.24765 -0.213469 -1.82076e-22)
(1.25096 -0.208414 7.97369e-22)
(1.25409 -0.203553 4.55252e-24)
(1.25708 -0.198909 -3.90502e-22)
(1.25995 -0.194508 9.43744e-22)
(1.26274 -0.190372 -1.52795e-21)
(1.26547 -0.186527 -7.53112e-22)
(1.26819 -0.182995 1.45006e-21)
(1.27095 -0.1798 0)
(1.2738 -0.176966 -5.14549e-21)
(1.2768 -0.174517 -7.12987e-21)
(1.28003 -0.172481 2.38587e-22)
(1.28358 -0.17089 6.47244e-21)
(1.28755 -0.169779 0)
(1.29204 -0.169188 0)
(1.29717 -0.169159 -3.1052e-21)
(1.30305 -0.169737 5.10027e-21)
(1.30974 -0.170961 -2.91758e-22)
(1.31725 -0.172864 -1.02064e-21)
(1.3255 -0.175475 4.51151e-21)
(1.33435 -0.178828 -1.67218e-21)
(1.34357 -0.182966 -4.57445e-22)
(1.35288 -0.187951 4.32609e-21)
(1.36198 -0.193879 -9.48032e-23)
(1.37067 -0.20088 -1.57387e-21)
(1.37886 -0.209133 -2.05115e-21)
(1.38661 -0.218798 -1.40274e-20)
(1.39391 -0.229992 9.05389e-21)
(1.40043 -0.242432 9.57739e-21)
(1.4039 -0.255662 -1.43421e-20)
(1.40037 -0.266492 -1.62118e-20)
(1.3711 -0.279348 0)
(0.975698 -0.361544 3.74093e-20)
(0.985477 -0.362287 -1.93923e-20)
(0.99535 -0.362702 0)
(1.00521 -0.362771 7.78045e-21)
(1.01509 -0.362529 0)
(1.02496 -0.36199 -1.93364e-20)
(1.03483 -0.361149 1.3457e-20)
(1.04468 -0.360003 -2.17865e-20)
(1.05448 -0.358548 2.13466e-20)
(1.06423 -0.356785 4.33126e-21)
(1.07391 -0.354713 -1.93122e-20)
(1.0835 -0.352334 1.50433e-20)
(1.09299 -0.349651 0)
(1.10237 -0.346667 9.23273e-21)
(1.11161 -0.343389 -1.65916e-20)
(1.1207 -0.339822 7.36747e-21)
(1.12963 -0.335973 0)
(1.13838 -0.331853 3.2439e-21)
(1.14693 -0.327471 -2.82909e-21)
(1.15526 -0.322839 6.48588e-22)
(1.16338 -0.317971 0)
(1.17125 -0.312881 0)
(1.17887 -0.307585 0)
(1.18622 -0.302101 1.13516e-21)
(1.19331 -0.296446 3.69815e-21)
(1.2001 -0.290642 -3.70529e-21)
(1.20661 -0.28471 1.98006e-21)
(1.21282 -0.278675 0)
(1.21872 -0.272559 5.65562e-21)
(1.22432 -0.266391 -8.34856e-21)
(1.22961 -0.260196 0)
(1.2346 -0.254003 6.65174e-21)
(1.23929 -0.247836 -3.19125e-21)
(1.24369 -0.241704 -3.2732e-21)
(1.24781 -0.235651 1.91108e-21)
(1.25166 -0.229711 0)
(1.25526 -0.223913 0)
(1.25863 -0.218284 1.68297e-21)
(1.26179 -0.212853 0)
(1.26477 -0.207645 -8.68906e-22)
(1.2676 -0.202686 2.02792e-22)
(1.27032 -0.198003 8.208e-22)
(1.27296 -0.19362 -3.73754e-23)
(1.27557 -0.189563 1.55457e-21)
(1.2782 -0.185857 3.0322e-21)
(1.28092 -0.182529 1.36702e-21)
(1.28378 -0.179603 -2.90228e-21)
(1.28688 -0.177106 -2.60406e-21)
(1.29029 -0.175066 -4.56345e-21)
(1.29411 -0.173512 4.49196e-21)
(1.29843 -0.172473 0)
(1.30331 -0.171979 -3.56897e-21)
(1.30882 -0.172056 2.35387e-22)
(1.31495 -0.172725 1.75936e-22)
(1.32164 -0.174007 -4.06692e-21)
(1.32878 -0.17592 0)
(1.33618 -0.178493 -6.93334e-22)
(1.34359 -0.181769 0)
(1.35076 -0.185823 0)
(1.35745 -0.190764 -2.10131e-21)
(1.36347 -0.196749 1.52578e-21)
(1.36874 -0.203977 7.31841e-21)
(1.37333 -0.212686 -9.54302e-21)
(1.37736 -0.223074 9.24667e-21)