/*--------------------------------*- C++ -*----------------------------------*\
| =========                 |                                                 |
| \\      /  F ield         | OpenFOAM: The Open Source CFD Toolbox           |
|  \\    /   O peration     | Version:  2312                                  |
|   \\  /    A nd           | Website:  www.openfoam.com                      |
|    \\/     M anipulation  |                                                 |
\*---------------------------------------------------------------------------*/
FoamFile
{
    version     2.0;
    format      ascii;
    arch        "LSB;label=32;scalar=64";
    class       volScalarField;
    location    "100";
    object      nut;
}
// * * * * * * * * * * * * * * * * * * * * * * * * * * * * * * * * * * * * * //

dimensions      [0 2 -1 0 0 0 0];

internalField   nonuniform List<scalar> 
76025
(
6.00431e-06
6.00254e-06
6.00094e-06
6.00069e-06
6.00318e-06
6.00652e-06
6.0091e-06
6.01108e-06
6.01282e-06
6.01514e-06
6.01741e-06
6.01885e-06
6.01929e-06
6.01987e-06
6.01993e-06
6.02011e-06
6.01946e-06
6.01829e-06
6.01624e-06
6.01424e-06
6.01202e-06
6.00942e-06
6.00651e-06
6.00324e-06
5.99972e-06
5.99624e-06
5.99239e-06
5.98831e-06
5.98387e-06
5.97872e-06
5.97312e-06
5.96682e-06
5.95985e-06
5.95243e-06
5.94426e-06
5.93527e-06
5.92558e-06
5.91475e-06
5.90293e-06
5.88993e-06
5.87585e-06
5.86075e-06
5.8441e-06
5.82604e-06
5.80653e-06
5.7855e-06
5.76273e-06
5.73793e-06
5.71135e-06
5.68275e-06
5.65159e-06
5.61747e-06
5.57989e-06
5.53792e-06
5.49008e-06
5.43585e-06
5.37183e-06
5.29601e-06
5.20455e-06
5.09245e-06
4.95517e-06
4.78501e-06
4.59182e-06
4.3164e-06
3.75585e-06
3.02768e-06
3.95533e-06
1.52591e-05
5.65011e-05
5.99257e-06
5.99065e-06
5.98855e-06
5.98641e-06
5.98475e-06
5.98411e-06
5.98447e-06
5.98527e-06
5.98615e-06
5.98704e-06
5.98808e-06
5.98919e-06
5.99011e-06
5.99062e-06
5.9908e-06
5.99065e-06
5.99026e-06
5.98951e-06
5.98836e-06
5.98669e-06
5.98461e-06
5.98212e-06
5.97923e-06
5.97593e-06
5.9722e-06
5.96803e-06
5.96346e-06
5.95846e-06
5.95303e-06
5.94713e-06
5.9407e-06
5.9337e-06
5.92607e-06
5.91776e-06
5.90874e-06
5.89892e-06
5.88826e-06
5.87669e-06
5.86412e-06
5.85048e-06
5.83569e-06
5.81968e-06
5.80235e-06
5.7836e-06
5.76334e-06
5.74145e-06
5.71782e-06
5.69228e-06
5.6646e-06
5.63448e-06
5.60152e-06
5.56512e-06
5.52447e-06
5.47845e-06
5.42564e-06
5.36415e-06
5.29167e-06
5.20533e-06
5.10129e-06
4.97393e-06
4.81585e-06
4.62966e-06
4.40749e-06
4.02954e-06
3.32588e-06
2.91508e-06
6.09874e-06
2.74408e-05
7.82061e-05
5.97539e-06
5.97473e-06
5.97351e-06
5.9718e-06
5.96971e-06
5.96755e-06
5.96571e-06
5.96431e-06
5.96331e-06
5.96256e-06
5.96202e-06
5.96164e-06
5.96139e-06
5.96111e-06
5.96071e-06
5.9601e-06
5.95926e-06
5.95816e-06
5.95678e-06
5.95504e-06
5.95292e-06
5.95039e-06
5.94743e-06
5.94403e-06
5.94018e-06
5.93585e-06
5.93103e-06
5.9257e-06
5.91984e-06
5.91342e-06
5.90642e-06
5.89879e-06
5.89048e-06
5.88146e-06
5.87167e-06
5.86106e-06
5.84958e-06
5.83715e-06
5.82373e-06
5.80923e-06
5.79359e-06
5.77672e-06
5.75855e-06
5.73897e-06
5.71787e-06
5.6951e-06
5.6705e-06
5.64381e-06
5.61471e-06
5.58276e-06
5.54739e-06
5.5078e-06
5.46298e-06
5.41165e-06
5.35217e-06
5.2825e-06
5.20014e-06
5.10191e-06
4.983e-06
4.83707e-06
4.65966e-06
4.45597e-06
4.17567e-06
3.65856e-06
2.92275e-06
3.35124e-06
1.11824e-05
4.48958e-05
9.82905e-05
5.95484e-06
5.9546e-06
5.95408e-06
5.95318e-06
5.95185e-06
5.95009e-06
5.94802e-06
5.94583e-06
5.94365e-06
5.94157e-06
5.9396e-06
5.93774e-06
5.93599e-06
5.93433e-06
5.93268e-06
5.931e-06
5.92921e-06
5.92726e-06
5.92511e-06
5.9227e-06
5.92e-06
5.91697e-06
5.91356e-06
5.90974e-06
5.90549e-06
5.90077e-06
5.89554e-06
5.88979e-06
5.88348e-06
5.87657e-06
5.86905e-06
5.86088e-06
5.852e-06
5.84239e-06
5.83199e-06
5.82076e-06
5.80864e-06
5.79558e-06
5.78151e-06
5.76636e-06
5.75005e-06
5.7325e-06
5.7136e-06
5.69322e-06
5.6712e-06
5.64734e-06
5.62139e-06
5.59299e-06
5.56172e-06
5.52699e-06
5.48807e-06
5.44403e-06
5.39373e-06
5.33571e-06
5.26817e-06
5.18892e-06
5.09519e-06
4.98314e-06
4.8468e-06
4.68101e-06
4.48493e-06
4.24784e-06
3.87309e-06
3.21325e-06
2.72079e-06
4.93765e-06
2.11489e-05
6.49489e-05
0.000116335
5.93536e-06
5.93406e-06
5.93294e-06
5.93185e-06
5.93065e-06
5.92923e-06
5.92752e-06
5.92552e-06
5.92326e-06
5.92081e-06
5.91822e-06
5.91555e-06
5.91283e-06
5.91007e-06
5.90727e-06
5.90443e-06
5.90151e-06
5.89848e-06
5.8953e-06
5.89194e-06
5.88834e-06
5.88446e-06
5.88028e-06
5.87574e-06
5.8708e-06
5.86543e-06
5.85959e-06
5.85324e-06
5.84635e-06
5.83887e-06
5.83079e-06
5.82205e-06
5.81261e-06
5.80244e-06
5.79147e-06
5.77965e-06
5.76694e-06
5.75325e-06
5.73853e-06
5.72268e-06
5.70561e-06
5.68721e-06
5.66732e-06
5.64579e-06
5.62239e-06
5.59684e-06
5.56881e-06
5.53784e-06
5.50339e-06
5.46478e-06
5.42115e-06
5.37147e-06
5.31443e-06
5.24845e-06
5.17157e-06
5.08139e-06
4.97455e-06
4.84629e-06
4.69006e-06
4.50458e-06
4.28523e-06
3.98869e-06
3.48878e-06
2.7843e-06
2.99608e-06
9.00217e-06
3.67144e-05
8.47601e-05
0.000131882
5.91657e-06
5.91432e-06
5.91221e-06
5.91024e-06
5.90835e-06
5.90648e-06
5.90455e-06
5.90248e-06
5.90022e-06
5.89774e-06
5.89505e-06
5.89214e-06
5.88904e-06
5.88576e-06
5.88232e-06
5.87873e-06
5.87498e-06
5.87107e-06
5.86699e-06
5.8627e-06
5.85819e-06
5.85342e-06
5.84836e-06
5.84298e-06
5.83722e-06
5.83106e-06
5.82446e-06
5.81738e-06
5.80977e-06
5.8016e-06
5.79283e-06
5.78341e-06
5.7733e-06
5.76243e-06
5.75075e-06
5.73821e-06
5.72472e-06
5.71021e-06
5.69459e-06
5.67775e-06
5.65956e-06
5.63988e-06
5.6185e-06
5.59521e-06
5.56972e-06
5.54169e-06
5.51068e-06
5.47616e-06
5.43751e-06
5.39394e-06
5.3445e-06
5.28803e-06
5.2231e-06
5.14794e-06
5.06042e-06
4.95767e-06
4.83542e-06
4.68821e-06
4.51075e-06
4.30447e-06
4.04198e-06
3.6576e-06
3.02923e-06
2.54136e-06
4.31213e-06
1.76344e-05
5.5814e-05
0.00010251
0.000144976
5.89513e-06
5.89288e-06
5.89047e-06
5.88799e-06
5.88546e-06
5.88293e-06
5.88039e-06
5.8778e-06
5.87513e-06
5.87234e-06
5.86939e-06
5.86625e-06
5.86291e-06
5.85935e-06
5.85557e-06
5.85156e-06
5.84732e-06
5.84285e-06
5.83814e-06
5.83318e-06
5.82794e-06
5.82242e-06
5.81658e-06
5.8104e-06
5.80384e-06
5.79688e-06
5.78947e-06
5.78158e-06
5.77316e-06
5.76418e-06
5.75459e-06
5.74433e-06
5.73334e-06
5.72158e-06
5.70896e-06
5.69542e-06
5.68086e-06
5.66518e-06
5.64827e-06
5.62998e-06
5.61016e-06
5.58861e-06
5.56509e-06
5.53931e-06
5.51094e-06
5.47955e-06
5.44466e-06
5.40565e-06
5.36183e-06
5.3123e-06
5.25602e-06
5.19167e-06
5.11767e-06
5.03206e-06
4.93235e-06
4.81477e-06
4.67421e-06
4.5059e-06
4.30644e-06
4.06639e-06
3.74104e-06
3.24365e-06
2.59153e-06
2.77151e-06
7.97541e-06
3.21014e-05
7.51674e-05
0.000117442
0.000155928
5.8689e-06
5.86708e-06
5.86497e-06
5.8626e-06
5.86001e-06
5.85724e-06
5.85432e-06
5.85129e-06
5.84814e-06
5.84487e-06
5.84147e-06
5.83791e-06
5.83417e-06
5.83023e-06
5.82607e-06
5.82168e-06
5.81703e-06
5.81211e-06
5.8069e-06
5.8014e-06
5.79558e-06
5.78943e-06
5.78292e-06
5.77603e-06
5.76873e-06
5.76099e-06
5.75277e-06
5.74403e-06
5.73474e-06
5.72484e-06
5.71429e-06
5.70302e-06
5.69097e-06
5.67807e-06
5.66424e-06
5.64937e-06
5.63337e-06
5.61611e-06
5.59744e-06
5.57718e-06
5.55515e-06
5.53109e-06
5.50473e-06
5.47572e-06
5.44368e-06
5.40814e-06
5.36852e-06
5.32416e-06
5.27425e-06
5.21781e-06
5.15363e-06
5.08024e-06
4.99587e-06
4.89826e-06
4.78413e-06
4.64863e-06
4.48712e-06
4.29638e-06
4.069e-06
3.77787e-06
3.37229e-06
2.77071e-06
2.36359e-06
4.07207e-06
1.62178e-05
5.06404e-05
9.23751e-05
0.000129468
0.000165139
5.83779e-06
5.8362e-06
5.83436e-06
5.83224e-06
5.82985e-06
5.82718e-06
5.82427e-06
5.82112e-06
5.81775e-06
5.81419e-06
5.81042e-06
5.80646e-06
5.80229e-06
5.79791e-06
5.79329e-06
5.78843e-06
5.78329e-06
5.77788e-06
5.77215e-06
5.7661e-06
5.75969e-06
5.75291e-06
5.74574e-06
5.73813e-06
5.73007e-06
5.72152e-06
5.71243e-06
5.70278e-06
5.6925e-06
5.68156e-06
5.66989e-06
5.65741e-06
5.64407e-06
5.62976e-06
5.61439e-06
5.59785e-06
5.58e-06
5.5607e-06
5.53977e-06
5.517e-06
5.49217e-06
5.46498e-06
5.43512e-06
5.4022e-06
5.36577e-06
5.32531e-06
5.28017e-06
5.2296e-06
5.17266e-06
5.10823e-06
5.03495e-06
4.95118e-06
4.85485e-06
4.74301e-06
4.61122e-06
4.45453e-06
4.2704e-06
4.0525e-06
3.77906e-06
3.42535e-06
2.91995e-06
2.35185e-06
2.67141e-06
7.89027e-06
3.05767e-05
6.96194e-05
0.000106338
0.000138895
0.000172909
5.80229e-06
5.80058e-06
5.79868e-06
5.79656e-06
5.79421e-06
5.7916e-06
5.78872e-06
5.78557e-06
5.78215e-06
5.77846e-06
5.77451e-06
5.77028e-06
5.76579e-06
5.76103e-06
5.75598e-06
5.75065e-06
5.74501e-06
5.73905e-06
5.73274e-06
5.72607e-06
5.719e-06
5.71152e-06
5.7036e-06
5.69519e-06
5.68627e-06
5.6768e-06
5.66672e-06
5.656e-06
5.64458e-06
5.6324e-06
5.61938e-06
5.60546e-06
5.59053e-06
5.5745e-06
5.55724e-06
5.53863e-06
5.51852e-06
5.49672e-06
5.47303e-06
5.44723e-06
5.41903e-06
5.38812e-06
5.35414e-06
5.31664e-06
5.27511e-06
5.22896e-06
5.17743e-06
5.11966e-06
5.05458e-06
4.98091e-06
4.89712e-06
4.80128e-06
4.69066e-06
4.56122e-06
4.40784e-06
4.22763e-06
4.01708e-06
3.75499e-06
3.42921e-06
2.99931e-06
2.44399e-06
2.21831e-06
4.25909e-06
1.67414e-05
4.91752e-05
8.61575e-05
0.000116855
0.000146209
0.000179475
5.76201e-06
5.76007e-06
5.75794e-06
5.7556e-06
5.75305e-06
5.75026e-06
5.74723e-06
5.74393e-06
5.74035e-06
5.73648e-06
5.73232e-06
5.72785e-06
5.72306e-06
5.71795e-06
5.71251e-06
5.70672e-06
5.70056e-06
5.69403e-06
5.6871e-06
5.67975e-06
5.67195e-06
5.66368e-06
5.6549e-06
5.64556e-06
5.63564e-06
5.62509e-06
5.61385e-06
5.60187e-06
5.58909e-06
5.57543e-06
5.56081e-06
5.54514e-06
5.52832e-06
5.51022e-06
5.49071e-06
5.46964e-06
5.44683e-06
5.42208e-06
5.39516e-06
5.36579e-06
5.33367e-06
5.29844e-06
5.25967e-06
5.21687e-06
5.16943e-06
5.11665e-06
5.05768e-06
4.99152e-06
4.91694e-06
4.83252e-06
4.73639e-06
4.626e-06
4.49752e-06
4.34597e-06
4.16762e-06
3.96073e-06
3.70843e-06
3.39817e-06
3.01658e-06
2.51909e-06
2.10812e-06
2.79546e-06
8.95257e-06
3.20766e-05
6.79176e-05
9.89032e-05
0.000124255
0.000151875
0.000184951
5.71564e-06
5.71355e-06
5.71122e-06
5.70864e-06
5.7058e-06
5.70271e-06
5.69936e-06
5.69573e-06
5.69182e-06
5.68761e-06
5.68309e-06
5.67824e-06
5.67304e-06
5.66748e-06
5.66155e-06
5.65522e-06
5.64848e-06
5.6413e-06
5.63366e-06
5.62554e-06
5.6169e-06
5.60771e-06
5.59793e-06
5.58752e-06
5.57643e-06
5.56461e-06
5.552e-06
5.53854e-06
5.52416e-06
5.50876e-06
5.49225e-06
5.47453e-06
5.45548e-06
5.43496e-06
5.41282e-06
5.38887e-06
5.36293e-06
5.33474e-06
5.30405e-06
5.27055e-06
5.23388e-06
5.19362e-06
5.14927e-06
5.10025e-06
5.04588e-06
4.98532e-06
4.91761e-06
4.8416e-06
4.75589e-06
4.65869e-06
4.54746e-06
4.41867e-06
4.26726e-06
4.08922e-06
3.88258e-06
3.63636e-06
3.33953e-06
2.98768e-06
2.54238e-06
2.09658e-06
2.21942e-06
5.19071e-06
1.96522e-05
5.12741e-05
8.36173e-05
0.000107608
0.000129107
0.000156181
0.000189248
5.66178e-06
5.65955e-06
5.65703e-06
5.65423e-06
5.65112e-06
5.64771e-06
5.644e-06
5.63997e-06
5.63563e-06
5.63095e-06
5.62593e-06
5.62054e-06
5.61478e-06
5.60862e-06
5.60204e-06
5.59502e-06
5.58753e-06
5.57955e-06
5.57105e-06
5.56199e-06
5.55235e-06
5.54206e-06
5.53111e-06
5.51942e-06
5.50696e-06
5.49365e-06
5.47944e-06
5.46424e-06
5.44797e-06
5.43053e-06
5.41182e-06
5.39171e-06
5.37006e-06
5.34671e-06
5.32149e-06
5.29419e-06
5.26457e-06
5.23237e-06
5.19727e-06
5.15892e-06
5.11689e-06
5.0707e-06
5.01977e-06
4.96341e-06
4.90082e-06
4.83107e-06
4.75303e-06
4.66533e-06
4.56617e-06
4.45304e-06
4.32238e-06
4.16977e-06
3.98992e-06
3.7817e-06
3.53779e-06
3.25164e-06
2.91927e-06
2.51233e-06
2.08508e-06
1.98221e-06
3.4755e-06
1.19677e-05
3.69599e-05
6.96603e-05
9.48723e-05
0.000112682
0.000131969
0.00015915
0.000192012
5.59957e-06
5.59696e-06
5.5941e-06
5.59093e-06
5.58746e-06
5.58366e-06
5.57952e-06
5.57502e-06
5.57017e-06
5.56494e-06
5.55931e-06
5.55328e-06
5.54682e-06
5.53992e-06
5.53254e-06
5.52466e-06
5.51625e-06
5.50729e-06
5.49773e-06
5.48754e-06
5.47667e-06
5.46508e-06
5.45271e-06
5.43951e-06
5.4254e-06
5.41033e-06
5.39422e-06
5.37696e-06
5.35848e-06
5.33864e-06
5.31732e-06
5.29439e-06
5.26967e-06
5.24299e-06
5.21414e-06
5.18287e-06
5.14891e-06
5.11195e-06
5.07163e-06
5.02752e-06
4.97913e-06
4.92588e-06
4.86709e-06
4.80197e-06
4.72959e-06
4.64885e-06
4.55836e-06
4.45625e-06
4.33997e-06
4.20594e-06
4.04996e-06
3.8676e-06
3.65498e-06
3.41141e-06
3.1366e-06
2.81596e-06
2.43539e-06
2.04132e-06
1.86522e-06
2.68752e-06
7.77391e-06
2.59768e-05
5.67714e-05
8.40715e-05
0.000101533
0.000114872
0.0001332
0.000160586
0.000192955
5.52849e-06
5.52514e-06
5.52157e-06
5.51773e-06
5.5136e-06
5.50916e-06
5.50437e-06
5.49921e-06
5.49367e-06
5.48772e-06
5.48134e-06
5.4745e-06
5.46719e-06
5.45937e-06
5.45101e-06
5.44209e-06
5.43257e-06
5.42241e-06
5.41158e-06
5.40002e-06
5.38768e-06
5.37451e-06
5.36045e-06
5.34543e-06
5.32937e-06
5.3122e-06
5.29381e-06
5.27411e-06
5.25298e-06
5.23028e-06
5.20586e-06
5.17956e-06
5.1512e-06
5.12054e-06
5.08736e-06
5.05136e-06
5.01222e-06
4.96958e-06
4.92301e-06
4.87199e-06
4.81594e-06
4.75419e-06
4.68593e-06
4.61025e-06
4.52601e-06
4.43176e-06
4.32552e-06
4.20455e-06
4.06549e-06
3.90404e-06
3.71694e-06
3.50111e-06
3.25672e-06
2.98623e-06
2.67403e-06
2.31551e-06
1.95914e-06
1.78239e-06
2.31447e-06
5.63712e-06
1.85666e-05
4.55441e-05
7.41105e-05
9.33675e-05
0.000104159
0.00011502
0.000132972
0.000160118
0.000191305
5.44751e-06
5.44306e-06
5.43842e-06
5.43354e-06
5.42839e-06
5.42294e-06
5.41715e-06
5.41101e-06
5.40446e-06
5.39749e-06
5.39006e-06
5.38214e-06
5.3737e-06
5.3647e-06
5.3551e-06
5.34487e-06
5.33397e-06
5.32234e-06
5.30993e-06
5.2967e-06
5.28257e-06
5.26749e-06
5.25138e-06
5.23416e-06
5.21575e-06
5.19604e-06
5.17492e-06
5.15228e-06
5.12797e-06
5.10183e-06
5.0737e-06
5.04337e-06
5.01061e-06
4.97519e-06
4.93679e-06
4.89508e-06
4.84969e-06
4.80017e-06
4.74599e-06
4.68655e-06
4.62117e-06
4.54904e-06
4.4692e-06
4.38046e-06
4.28122e-06
4.16935e-06
4.04195e-06
3.89572e-06
3.72706e-06
3.53249e-06
3.31389e-06
3.06839e-06
2.8001e-06
2.4952e-06
2.15902e-06
1.84466e-06
1.70486e-06
2.13882e-06
4.6009e-06
1.41032e-05
3.66846e-05
6.49085e-05
8.63849e-05
9.77171e-05
0.000103612
0.000113802
0.000131726
0.000157388
0.000187415
5.35405e-06
5.34831e-06
5.34237e-06
5.33617e-06
5.3297e-06
5.32291e-06
5.31579e-06
5.30828e-06
5.30037e-06
5.29201e-06
5.28316e-06
5.27378e-06
5.26384e-06
5.25329e-06
5.24208e-06
5.23016e-06
5.21749e-06
5.20399e-06
5.18962e-06
5.1743e-06
5.15796e-06
5.14052e-06
5.12189e-06
5.10197e-06
5.08067e-06
5.05786e-06
5.03342e-06
5.00719e-06
4.97901e-06
4.94869e-06
4.91603e-06
4.88077e-06
4.84267e-06
4.8014e-06
4.75661e-06
4.70789e-06
4.65478e-06
4.59674e-06
4.53315e-06
4.46329e-06
4.38633e-06
4.30125e-06
4.2067e-06
4.10091e-06
3.9815e-06
3.84564e-06
3.69e-06
3.51219e-06
3.31016e-06
3.08567e-06
2.84472e-06
2.57786e-06
2.28024e-06
1.9722e-06
1.70915e-06
1.63152e-06
2.07719e-06
4.17105e-06
1.16932e-05
3.04325e-05
5.69159e-05
7.97623e-05
9.3117e-05
9.80487e-05
0.000100916
0.000110934
0.000127305
0.000151606
0.000180627
5.24337e-06
5.23629e-06
5.22895e-06
5.22131e-06
5.21334e-06
5.205e-06
5.19629e-06
5.18714e-06
5.17755e-06
5.16745e-06
5.15682e-06
5.1456e-06
5.13375e-06
5.12123e-06
5.10796e-06
5.09389e-06
5.07897e-06
5.06311e-06
5.04625e-06
5.02831e-06
5.00918e-06
4.98878e-06
4.967e-06
4.94373e-06
4.91884e-06
4.89219e-06
4.86362e-06
4.83295e-06
4.79997e-06
4.76446e-06
4.72615e-06
4.68477e-06
4.63997e-06
4.59138e-06
4.53856e-06
4.48102e-06
4.41821e-06
4.34946e-06
4.27403e-06
4.19102e-06
4.09926e-06
3.99719e-06
3.88283e-06
3.7537e-06
3.60691e-06
3.44021e-06
3.25173e-06
3.04454e-06
2.81695e-06
2.57751e-06
2.31459e-06
2.03313e-06
1.76197e-06
1.57166e-06
1.57879e-06
2.1128e-06
4.13125e-06
1.06307e-05
2.64971e-05
5.05162e-05
7.34818e-05
8.8713e-05
9.498e-05
9.57113e-05
9.83276e-05
0.000105507
0.000119617
0.000142335
0.000170632
5.10831e-06
5.09985e-06
5.09106e-06
5.08189e-06
5.07231e-06
5.06229e-06
5.0518e-06
5.04081e-06
5.02928e-06
5.01716e-06
5.00442e-06
4.991e-06
4.97685e-06
4.96191e-06
4.94612e-06
4.9294e-06
4.91169e-06
4.8929e-06
4.87293e-06
4.8517e-06
4.82909e-06
4.80497e-06
4.77923e-06
4.75174e-06
4.72234e-06
4.69083e-06
4.65704e-06
4.62073e-06
4.58165e-06
4.53953e-06
4.49405e-06
4.44485e-06
4.39152e-06
4.33361e-06
4.27057e-06
4.20183e-06
4.12669e-06
4.04433e-06
3.9537e-06
3.85344e-06
3.74169e-06
3.61633e-06
3.47495e-06
3.31557e-06
3.13658e-06
2.94122e-06
2.72885e-06
2.50903e-06
2.27208e-06
2.01899e-06
1.76611e-06
1.55152e-06
1.44641e-06
1.58311e-06
2.27182e-06
4.41214e-06
1.04754e-05
2.43179e-05
4.56886e-05
6.76826e-05
8.39711e-05
9.21345e-05
9.31019e-05
9.16913e-05
9.28469e-05
9.70117e-05
0.000108586
0.000129212
0.000157131
4.93888e-06
4.9289e-06
4.91851e-06
4.90766e-06
4.89629e-06
4.88439e-06
4.87191e-06
4.85881e-06
4.84506e-06
4.83061e-06
4.8154e-06
4.79938e-06
4.78248e-06
4.76465e-06
4.74579e-06
4.72584e-06
4.7047e-06
4.68227e-06
4.65844e-06
4.63309e-06
4.60609e-06
4.57729e-06
4.54656e-06
4.51374e-06
4.47861e-06
4.44095e-06
4.40052e-06
4.35703e-06
4.31019e-06
4.25964e-06
4.20499e-06
4.14581e-06
4.0816e-06
4.0118e-06
3.93578e-06
3.85277e-06
3.76178e-06
3.66158e-06
3.55052e-06
3.42663e-06
3.28774e-06
3.13293e-06
2.96065e-06
2.7745e-06
2.57431e-06
2.37115e-06
2.15582e-06
1.92918e-06
1.70289e-06
1.49988e-06
1.36655e-06
1.37287e-06
1.6692e-06
2.58492e-06
4.99761e-06
1.0945e-05
2.32704e-05
4.19965e-05
6.22306e-05
7.86396e-05
8.84514e-05
9.11622e-05
8.87977e-05
8.69105e-05
8.51615e-05
8.59403e-05
9.45947e-05
0.000112855
0.000139611
4.7211e-06
4.70929e-06
4.69699e-06
4.68412e-06
4.67063e-06
4.65649e-06
4.64166e-06
4.62607e-06
4.60969e-06
4.59245e-06
4.5743e-06
4.55516e-06
4.53496e-06
4.51361e-06
4.49103e-06
4.46712e-06
4.44177e-06
4.41485e-06
4.38623e-06
4.35576e-06
4.32328e-06
4.28862e-06
4.25163e-06
4.21206e-06
4.16965e-06
4.12415e-06
4.07525e-06
4.02263e-06
3.96589e-06
3.90464e-06
3.8384e-06
3.76664e-06
3.68875e-06
3.60397e-06
3.51144e-06
3.40991e-06
3.2979e-06
3.17369e-06
3.03577e-06
2.88274e-06
2.7167e-06
2.54013e-06
2.35147e-06
2.16454e-06
1.9702e-06
1.76974e-06
1.5727e-06
1.39737e-06
1.27411e-06
1.24364e-06
1.39876e-06
1.90066e-06
3.12392e-06
5.90229e-06
1.1804e-05
2.27143e-05
3.87095e-05
5.66188e-05
7.23472e-05
8.31869e-05
8.79521e-05
8.7075e-05
8.37318e-05
8.06143e-05
7.5799e-05
7.29734e-05
7.81239e-05
9.355e-05
0.000117226
4.43437e-06
4.42025e-06
4.40555e-06
4.39016e-06
4.37404e-06
4.35712e-06
4.33936e-06
4.3207e-06
4.30107e-06
4.2804e-06
4.25862e-06
4.23564e-06
4.21136e-06
4.18569e-06
4.1585e-06
4.12969e-06
4.09911e-06
4.06661e-06
4.03203e-06
3.99519e-06
3.95589e-06
3.91399e-06
3.86924e-06
3.82135e-06
3.77002e-06
3.71493e-06
3.6557e-06
3.59193e-06
3.52317e-06
3.4489e-06
3.36852e-06
3.28133e-06
3.18645e-06
3.08277e-06
2.96904e-06
2.84372e-06
2.70617e-06
2.55572e-06
2.39606e-06
2.22728e-06
2.06087e-06
1.89265e-06
1.72051e-06
1.54986e-06
1.38584e-06
1.24661e-06
1.15166e-06
1.13127e-06
1.24198e-06
1.57911e-06
2.34375e-06
3.93618e-06
7.05009e-06
1.26915e-05
2.1918e-05
3.49149e-05
5.00352e-05
6.44747e-05
7.57428e-05
8.22422e-05
8.34058e-05
8.04036e-05
7.78734e-05
7.3172e-05
6.56245e-05
5.91994e-05
5.99139e-05
7.06136e-05
8.98327e-05
4.04753e-06
4.03056e-06
4.01289e-06
3.99441e-06
3.97505e-06
3.95475e-06
3.93344e-06
3.91105e-06
3.8875e-06
3.8627e-06
3.83656e-06
3.80897e-06
3.77983e-06
3.749e-06
3.71636e-06
3.68176e-06
3.64502e-06
3.60597e-06
3.56442e-06
3.52013e-06
3.473e-06
3.42271e-06
3.36894e-06
3.31139e-06
3.2497e-06
3.18348e-06
3.11232e-06
3.03573e-06
2.95312e-06
2.86381e-06
2.76702e-06
2.66187e-06
2.54725e-06
2.4227e-06
2.28751e-06
2.14471e-06
1.99653e-06
1.84284e-06
1.6987e-06
1.55566e-06
1.41532e-06
1.27995e-06
1.16054e-06
1.06926e-06
1.00935e-06
1.02202e-06
1.13549e-06
1.41062e-06
1.97026e-06
3.04007e-06
4.96613e-06
8.16005e-06
1.30316e-05
2.00546e-05
2.96639e-05
4.15582e-05
5.41959e-05
6.53846e-05
7.3226e-05
7.65628e-05
7.53222e-05
7.14011e-05
7.02745e-05
6.47143e-05
5.53632e-05
4.60744e-05
4.24764e-05
4.76471e-05
6.10763e-05
3.51439e-06
3.49419e-06
3.47318e-06
3.45124e-06
3.42827e-06
3.40422e-06
3.37899e-06
3.35252e-06
3.32469e-06
3.29543e-06
3.26461e-06
3.23212e-06
3.19784e-06
3.16161e-06
3.1233e-06
3.08273e-06
3.03972e-06
2.99407e-06
2.94556e-06
2.8941e-06
2.83932e-06
2.7809e-06
2.7185e-06
2.65175e-06
2.58023e-06
2.5035e-06
2.42107e-06
2.3324e-06
2.23693e-06
2.13419e-06
2.024e-06
1.90611e-06
1.78272e-06
1.65612e-06
1.52633e-06
1.40977e-06
1.29688e-06
1.18693e-06
1.08589e-06
9.99679e-07
9.33005e-07
8.85162e-07
8.84774e-07
9.40708e-07
1.07574e-06
1.3329e-06
1.79049e-06
2.58096e-06
3.89034e-06
5.89335e-06
8.63217e-06
1.2053e-05
1.63594e-05
2.22783e-05
3.05451e-05
4.07792e-05
5.12426e-05
5.98721e-05
6.50661e-05
6.59804e-05
6.29816e-05
6.28016e-05
6.11893e-05
5.50511e-05
4.49474e-05
3.42333e-05
2.77638e-05
2.79701e-05
3.44894e-05
2.77929e-06
2.75659e-06
2.73303e-06
2.70847e-06
2.68283e-06
2.65604e-06
2.62802e-06
2.59868e-06
2.56794e-06
2.5357e-06
2.50185e-06
2.46628e-06
2.42886e-06
2.38947e-06
2.34795e-06
2.30417e-06
2.25794e-06
2.20908e-06
2.1574e-06
2.10249e-06
2.04404e-06
1.98176e-06
1.91535e-06
1.84454e-06
1.76914e-06
1.68904e-06
1.6043e-06
1.51499e-06
1.42171e-06
1.32563e-06
1.22858e-06
1.13126e-06
1.0458e-06
9.68369e-07
8.99417e-07
8.40853e-07
7.87437e-07
7.482e-07
7.3808e-07
7.56711e-07
8.08353e-07
9.03175e-07
1.05899e-06
1.30603e-06
1.69229e-06
2.28912e-06
3.18557e-06
4.44712e-06
6.01423e-06
7.65203e-06
9.14595e-06
1.06989e-05
1.31521e-05
1.7589e-05
2.44796e-05
3.29584e-05
4.12025e-05
4.74564e-05
5.04988e-05
4.97144e-05
4.80114e-05
4.9798e-05
4.86246e-05
4.27398e-05
3.31482e-05
2.29558e-05
1.62177e-05
1.43406e-05
1.6146e-05
1.82497e-06
1.80337e-06
1.78106e-06
1.75794e-06
1.73392e-06
1.70896e-06
1.68301e-06
1.65599e-06
1.62785e-06
1.59851e-06
1.56791e-06
1.53596e-06
1.5026e-06
1.46774e-06
1.43129e-06
1.39321e-06
1.35317e-06
1.31073e-06
1.26574e-06
1.21827e-06
1.16839e-06
1.11625e-06
1.06211e-06
1.00636e-06
9.49514e-07
8.92275e-07
8.35208e-07
7.80591e-07
7.30203e-07
6.85349e-07
6.47062e-07
6.16214e-07
5.93419e-07
5.82169e-07
5.90987e-07
6.15063e-07
6.54896e-07
7.13176e-07
7.94276e-07
9.04948e-07
1.05563e-06
1.2627e-06
1.5508e-06
1.95008e-06
2.48737e-06
3.17101e-06
3.93705e-06
4.59924e-06
4.89037e-06
4.7464e-06
4.57771e-06
4.88216e-06
6.16504e-06
8.8805e-06
1.32694e-05
1.86901e-05
2.36322e-05
2.65822e-05
2.78188e-05
2.84439e-05
2.86902e-05
2.95481e-05
3.03297e-05
2.60817e-05
1.87256e-05
1.13428e-05
6.95714e-06
5.78735e-06
6.37115e-06
8.16707e-07
8.04072e-07
7.91174e-07
7.77963e-07
7.64414e-07
7.50499e-07
7.36193e-07
7.2147e-07
7.06303e-07
6.90667e-07
6.7454e-07
6.57903e-07
6.40735e-07
6.23017e-07
6.04733e-07
5.85916e-07
5.66795e-07
5.47708e-07
5.2888e-07
5.10538e-07
4.92936e-07
4.76355e-07
4.61102e-07
4.47506e-07
4.35902e-07
4.26687e-07
4.19549e-07
4.26162e-07
4.40197e-07
4.59834e-07
4.84846e-07
5.15444e-07
5.519e-07
5.94379e-07
6.42948e-07
6.97808e-07
7.59831e-07
8.31347e-07
9.16568e-07
1.0223e-06
1.15847e-06
1.33354e-06
1.5436e-06
1.76286e-06
1.9502e-06
2.04884e-06
1.97333e-06
1.66736e-06
1.22304e-06
8.14139e-07
7.26255e-07
8.25734e-07
1.16754e-06
1.87334e-06
3.06785e-06
4.73528e-06
6.60887e-06
8.23419e-06
9.39097e-06
1.01374e-05
1.04734e-05
1.03374e-05
9.46849e-06
7.1832e-06
4.38154e-06
2.24542e-06
1.21374e-06
1.17595e-06
1.65101e-06
2.17238e-07
2.21831e-07
2.26433e-07
2.31008e-07
2.35524e-07
2.39955e-07
2.44278e-07
2.48476e-07
2.52536e-07
2.56443e-07
2.60216e-07
2.64364e-07
2.69056e-07
2.74383e-07
2.80428e-07
2.87258e-07
2.94935e-07
3.03517e-07
3.13056e-07
3.23593e-07
3.3515e-07
3.47718e-07
3.61245e-07
3.75618e-07
3.90638e-07
4.06006e-07
4.21263e-07
4.35902e-07
4.49198e-07
4.6026e-07
4.68126e-07
4.71889e-07
4.70924e-07
4.65209e-07
4.55795e-07
4.4504e-07
4.36176e-07
4.31227e-07
4.31185e-07
4.38848e-07
4.58337e-07
4.79221e-07
4.67153e-07
4.05985e-07
3.14151e-07
2.14162e-07
1.37957e-07
9.84338e-08
6.75709e-08
5.01052e-08
4.72356e-08
5.68112e-08
8.36543e-08
1.38779e-07
2.37995e-07
3.96881e-07
6.13806e-07
8.58141e-07
1.07948e-06
1.23538e-06
1.28712e-06
1.20511e-06
9.85208e-07
6.6408e-07
3.61952e-07
1.68487e-07
8.19816e-08
6.58534e-08
1.06498e-07
1.19531e-07
1.23597e-07
1.27735e-07
1.31931e-07
1.36155e-07
1.40375e-07
1.44556e-07
1.48658e-07
1.52638e-07
1.5645e-07
1.60003e-07
1.62864e-07
1.64925e-07
1.66166e-07
1.66579e-07
1.66145e-07
1.64831e-07
1.62595e-07
1.59393e-07
1.55181e-07
1.49917e-07
1.43568e-07
1.3612e-07
1.27586e-07
1.18014e-07
1.07503e-07
9.62105e-08
8.43592e-08
7.22418e-08
6.02132e-08
4.86743e-08
3.80459e-08
2.8736e-08
2.11012e-08
1.53711e-08
1.15078e-08
9.07653e-09
7.00341e-09
4.85356e-09
2.97465e-09
1.89773e-09
2.12352e-09
2.48099e-09
3.0374e-09
2.88586e-09
2.30762e-09
1.70406e-09
1.2607e-09
9.50102e-10
7.80496e-10
7.18881e-10
7.38335e-10
8.01234e-10
8.69671e-10
1.00807e-09
1.47973e-09
2.34227e-09
3.66207e-09
4.98506e-09
5.85628e-09
6.01636e-09
5.48594e-09
4.27973e-09
2.91114e-09
2.23702e-09
1.54857e-09
9.81157e-10
7.35862e-10
6.9346e-10
6.04598e-06
6.0433e-06
6.04067e-06
6.03901e-06
6.03787e-06
6.03861e-06
6.04096e-06
6.04346e-06
6.04752e-06
6.05027e-06
6.05311e-06
6.05482e-06
6.05322e-06
6.05129e-06
6.04638e-06
6.04164e-06
6.04063e-06
6.04035e-06
6.05001e-06
6.06551e-06
6.06514e-06
6.04308e-06
6.03748e-06
6.0252e-06
5.99727e-06
5.97574e-06
5.97014e-06
5.97978e-06
5.99266e-06
6.00022e-06
5.99474e-06
5.98033e-06
5.96725e-06
5.96072e-06
5.96574e-06
5.97207e-06
5.96763e-06
5.95848e-06
5.9609e-06
5.97686e-06
6.00198e-06
6.01007e-06
6.00492e-06
6.00509e-06
6.00964e-06
6.01502e-06
6.01914e-06
6.01678e-06
6.0105e-06
6.00437e-06
6.00101e-06
6.00092e-06
6.00424e-06
6.01013e-06
6.01402e-06
6.01426e-06
6.0112e-06
6.0079e-06
6.0055e-06
6.02226e-06
6.02185e-06
6.02216e-06
6.02321e-06
6.02513e-06
6.02783e-06
6.03082e-06
6.03389e-06
6.03653e-06
6.03827e-06
6.03907e-06
6.03826e-06
6.036e-06
6.03285e-06
6.02933e-06
6.02735e-06
6.02841e-06
6.03373e-06
6.04535e-06
6.05305e-06
6.0445e-06
6.02804e-06
6.02172e-06
6.00583e-06
5.98017e-06
5.96264e-06
5.95979e-06
5.96958e-06
5.98168e-06
5.9885e-06
5.98337e-06
5.9699e-06
5.95723e-06
5.94997e-06
5.95291e-06
5.95906e-06
5.95747e-06
5.94958e-06
5.94757e-06
5.95701e-06
5.97773e-06
5.99259e-06
5.99474e-06
5.99308e-06
5.99396e-06
5.99722e-06
6.00152e-06
6.00372e-06
6.00223e-06
5.99808e-06
5.99339e-06
5.98965e-06
5.98782e-06
5.98844e-06
5.99074e-06
5.99334e-06
5.99495e-06
5.9951e-06
5.99421e-06
6.00461e-06
6.0062e-06
6.00825e-06
6.0107e-06
6.01342e-06
6.01613e-06
6.01855e-06
6.02047e-06
6.02157e-06
6.02183e-06
6.02111e-06
6.01933e-06
6.01699e-06
6.01461e-06
6.01315e-06
6.014e-06
6.01847e-06
6.02686e-06
6.03564e-06
6.03562e-06
6.0242e-06
6.01196e-06
6.00355e-06
5.98559e-06
5.96295e-06
5.94915e-06
5.94861e-06
5.95836e-06
5.9696e-06
5.97566e-06
5.9709e-06
5.95842e-06
5.94623e-06
5.93846e-06
5.93949e-06
5.94487e-06
5.9454e-06
5.93943e-06
5.93505e-06
5.93898e-06
5.95383e-06
5.97029e-06
5.97871e-06
5.97989e-06
5.97946e-06
5.98031e-06
5.98283e-06
5.9858e-06
5.98734e-06
5.98655e-06
5.98385e-06
5.98024e-06
5.97671e-06
5.97409e-06
5.97286e-06
5.97296e-06
5.97384e-06
5.9748e-06
5.9754e-06
5.98995e-06
5.9922e-06
5.99454e-06
5.99685e-06
5.99896e-06
6.00069e-06
6.00193e-06
6.00256e-06
6.00255e-06
6.00194e-06
6.00069e-06
5.99914e-06
5.99775e-06
5.9971e-06
5.99819e-06
6.00206e-06
6.00894e-06
6.01683e-06
6.02047e-06
6.01521e-06
6.00397e-06
5.99393e-06
5.98322e-06
5.96474e-06
5.9454e-06
5.93499e-06
5.93633e-06
5.94594e-06
5.9563e-06
5.96164e-06
5.95725e-06
5.94574e-06
5.93405e-06
5.92591e-06
5.9253e-06
5.92956e-06
5.93142e-06
5.9275e-06
5.92241e-06
5.9223e-06
5.93125e-06
5.94563e-06
5.95738e-06
5.96276e-06
5.96386e-06
5.96384e-06
5.96452e-06
5.96623e-06
5.96819e-06
5.96931e-06
5.96901e-06
5.96737e-06
5.96481e-06
5.96191e-06
5.95922e-06
5.95715e-06
5.95585e-06
5.95521e-06
5.95497e-06
5.97363e-06
5.9755e-06
5.97722e-06
5.9787e-06
5.97986e-06
5.98064e-06
5.98103e-06
5.98102e-06
5.98064e-06
5.97998e-06
5.97927e-06
5.9788e-06
5.97904e-06
5.98064e-06
5.98434e-06
5.99031e-06
5.99727e-06
6.00201e-06
6.00077e-06
5.99306e-06
5.98301e-06
5.97355e-06
5.96105e-06
5.9433e-06
5.92727e-06
5.91991e-06
5.92275e-06
5.93213e-06
5.94164e-06
5.94632e-06
5.94226e-06
5.93167e-06
5.92052e-06
5.91214e-06
5.91014e-06
5.91309e-06
5.91556e-06
5.91347e-06
5.90879e-06
5.90621e-06
5.91014e-06
5.92052e-06
5.93238e-06
5.94085e-06
5.94484e-06
5.94592e-06
5.94604e-06
5.94643e-06
5.94739e-06
5.94853e-06
5.94927e-06
5.94922e-06
5.9483e-06
5.94664e-06
5.94452e-06
5.94224e-06
5.94009e-06
5.93825e-06
5.93676e-06
5.95273e-06
5.95397e-06
5.95503e-06
5.95588e-06
5.9565e-06
5.95692e-06
5.95712e-06
5.95717e-06
5.9572e-06
5.95731e-06
5.95777e-06
5.95889e-06
5.96113e-06
5.96494e-06
5.97038e-06
5.97657e-06
5.98142e-06
5.98225e-06
5.97774e-06
5.96951e-06
5.9605e-06
5.9507e-06
5.9373e-06
5.92115e-06
5.90833e-06
5.90364e-06
5.90764e-06
5.91674e-06
5.9254e-06
5.92949e-06
5.92574e-06
5.91601e-06
5.90542e-06
5.89693e-06
5.89376e-06
5.89536e-06
5.89784e-06
5.89718e-06
5.89346e-06
5.88979e-06
5.89003e-06
5.89598e-06
5.90557e-06
5.91489e-06
5.92131e-06
5.92453e-06
5.92559e-06
5.92574e-06
5.92582e-06
5.92615e-06
5.92661e-06
5.92693e-06
5.92687e-06
5.92633e-06
5.92529e-06
5.92385e-06
5.92216e-06
5.92038e-06
5.9186e-06
5.92707e-06
5.928e-06
5.92884e-06
5.92958e-06
5.93025e-06
5.93088e-06
5.93153e-06
5.93228e-06
5.93324e-06
5.93458e-06
5.93656e-06
5.93945e-06
5.9435e-06
5.94863e-06
5.9542e-06
5.95877e-06
5.96052e-06
5.95817e-06
5.95215e-06
5.9443e-06
5.93578e-06
5.92542e-06
5.91209e-06
5.89807e-06
5.88828e-06
5.88589e-06
5.89077e-06
5.89953e-06
5.90737e-06
5.91092e-06
5.90746e-06
5.89854e-06
5.88851e-06
5.88002e-06
5.87589e-06
5.87619e-06
5.87821e-06
5.87848e-06
5.87589e-06
5.87211e-06
5.87007e-06
5.87214e-06
5.87831e-06
5.88633e-06
5.8936e-06
5.89866e-06
5.90139e-06
5.90242e-06
5.90256e-06
5.9024e-06
5.90224e-06
5.90214e-06
5.902e-06
5.90173e-06
5.90124e-06
5.90048e-06
5.89948e-06
5.89827e-06
5.89691e-06
5.89789e-06
5.89894e-06
5.90002e-06
5.90114e-06
5.90234e-06
5.90365e-06
5.90515e-06
5.90693e-06
5.90912e-06
5.91187e-06
5.91534e-06
5.9196e-06
5.92452e-06
5.92956e-06
5.93372e-06
5.93576e-06
5.93472e-06
5.93054e-06
5.92422e-06
5.91689e-06
5.90841e-06
5.89783e-06
5.88537e-06
5.87378e-06
5.86676e-06
5.86632e-06
5.87182e-06
5.8802e-06
5.88727e-06
5.89033e-06
5.88714e-06
5.87897e-06
5.86951e-06
5.86112e-06