/*--------------------------------*- C++ -*----------------------------------*\
| =========                 |                                                 |
| \\      /  F ield         | OpenFOAM: The Open Source CFD Toolbox           |
|  \\    /   O peration     | Version:  2312                                  |
|   \\  /    A nd           | Website:  www.openfoam.com                      |
|    \\/     M anipulation  |                                                 |
\*---------------------------------------------------------------------------*/
FoamFile
{
    version     2.0;
    format      ascii;
    arch        "LSB;label=32;scalar=64";
    class       volScalarField;
    location    "100";
    object      nuTilda;
}
// * * * * * * * * * * * * * * * * * * * * * * * * * * * * * * * * * * * * * //

dimensions      [0 2 -1 0 0 0 0];

internalField   nonuniform List<scalar> 
76025
(
3.98819e-05
3.98785e-05
3.98755e-05
3.98751e-05
3.98797e-05
3.9886e-05
3.98908e-05
3.98945e-05
3.98978e-05
3.99021e-05
3.99064e-05
3.99091e-05
3.99099e-05
3.9911e-05
3.99111e-05
3.99114e-05
3.99102e-05
3.9908e-05
3.99042e-05
3.99004e-05
3.98963e-05
3.98914e-05
3.9886e-05
3.98799e-05
3.98733e-05
3.98668e-05
3.98595e-05
3.98519e-05
3.98436e-05
3.98339e-05
3.98234e-05
3.98115e-05
3.97984e-05
3.97845e-05
3.97691e-05
3.97522e-05
3.97339e-05
3.97134e-05
3.96911e-05
3.96665e-05
3.96398e-05
3.96111e-05
3.95794e-05
3.9545e-05
3.95077e-05
3.94675e-05
3.94238e-05
3.93761e-05
3.93248e-05
3.92695e-05
3.9209e-05
3.91425e-05
3.9069e-05
3.89865e-05
3.8892e-05
3.87843e-05
3.86562e-05
3.85032e-05
3.83168e-05
3.80855e-05
3.77977e-05
3.74338e-05
3.70103e-05
3.6386e-05
3.50295e-05
3.30486e-05
3.55267e-05
5.26594e-05
8.71024e-05
3.98599e-05
3.98563e-05
3.98523e-05
3.98483e-05
3.98452e-05
3.9844e-05
3.98447e-05
3.98462e-05
3.98478e-05
3.98495e-05
3.98514e-05
3.98535e-05
3.98553e-05
3.98562e-05
3.98565e-05
3.98563e-05
3.98555e-05
3.98541e-05
3.9852e-05
3.98489e-05
3.98449e-05
3.98403e-05
3.98348e-05
3.98286e-05
3.98217e-05
3.98138e-05
3.98052e-05
3.97958e-05
3.97856e-05
3.97745e-05
3.97624e-05
3.97492e-05
3.97348e-05
3.97191e-05
3.97021e-05
3.96835e-05
3.96633e-05
3.96413e-05
3.96175e-05
3.95916e-05
3.95634e-05
3.95329e-05
3.94997e-05
3.94638e-05
3.9425e-05
3.93829e-05
3.93373e-05
3.92879e-05
3.92343e-05
3.91757e-05
3.91114e-05
3.904e-05
3.896e-05
3.8869e-05
3.87639e-05
3.86408e-05
3.84944e-05
3.83184e-05
3.81039e-05
3.78373e-05
3.75003e-05
3.70941e-05
3.65953e-05
3.57074e-05
3.38948e-05
3.27145e-05
4.00578e-05
6.4331e-05
0.000103472
3.98276e-05
3.98264e-05
3.98241e-05
3.98209e-05
3.9817e-05
3.98129e-05
3.98094e-05
3.98068e-05
3.98049e-05
3.98035e-05
3.98025e-05
3.98018e-05
3.98013e-05
3.98008e-05
3.98001e-05
3.97989e-05
3.97973e-05
3.97953e-05
3.97927e-05
3.97894e-05
3.97854e-05
3.97806e-05
3.97751e-05
3.97687e-05
3.97614e-05
3.97532e-05
3.97442e-05
3.97341e-05
3.9723e-05
3.97109e-05
3.96977e-05
3.96832e-05
3.96675e-05
3.96504e-05
3.96318e-05
3.96117e-05
3.95898e-05
3.95662e-05
3.95406e-05
3.95129e-05
3.9483e-05
3.94507e-05
3.94158e-05
3.93781e-05
3.93374e-05
3.92934e-05
3.92457e-05
3.91939e-05
3.91371e-05
3.90746e-05
3.90052e-05
3.89271e-05
3.88383e-05
3.8736e-05
3.86166e-05
3.84758e-05
3.83078e-05
3.81051e-05
3.78565e-05
3.7546e-05
3.71603e-05
3.67055e-05
3.60569e-05
3.47807e-05
3.27375e-05
3.39644e-05
4.78086e-05
7.83302e-05
0.000119109
3.9789e-05
3.97886e-05
3.97876e-05
3.97859e-05
3.97834e-05
3.97801e-05
3.97762e-05
3.9772e-05
3.97679e-05
3.9764e-05
3.97603e-05
3.97568e-05
3.97535e-05
3.97504e-05
3.97473e-05
3.97441e-05
3.97407e-05
3.9737e-05
3.9733e-05
3.97284e-05
3.97233e-05
3.97176e-05
3.97112e-05
3.9704e-05
3.96959e-05
3.9687e-05
3.96771e-05
3.96662e-05
3.96542e-05
3.96411e-05
3.96269e-05
3.96113e-05
3.95945e-05
3.95762e-05
3.95563e-05
3.95349e-05
3.95118e-05
3.94868e-05
3.94598e-05
3.94308e-05
3.93994e-05
3.93656e-05
3.93292e-05
3.92898e-05
3.92471e-05
3.92007e-05
3.91502e-05
3.90947e-05
3.90333e-05
3.8965e-05
3.8888e-05
3.88006e-05
3.87001e-05
3.85835e-05
3.84467e-05
3.82848e-05
3.80912e-05
3.78568e-05
3.75669e-05
3.72072e-05
3.6771e-05
3.62266e-05
3.53238e-05
3.35815e-05
3.21165e-05
3.77606e-05
5.86564e-05
9.34413e-05
0.000133741
3.97523e-05
3.97499e-05
3.97478e-05
3.97457e-05
3.97434e-05
3.97408e-05
3.97375e-05
3.97338e-05
3.97295e-05
3.97249e-05
3.972e-05
3.97149e-05
3.97098e-05
3.97046e-05
3.96993e-05
3.96939e-05
3.96884e-05
3.96826e-05
3.96766e-05
3.96703e-05
3.96634e-05
3.96561e-05
3.96482e-05
3.96395e-05
3.96302e-05
3.962e-05
3.96089e-05
3.95968e-05
3.95837e-05
3.95695e-05
3.9554e-05
3.95374e-05
3.95194e-05
3.94999e-05
3.94789e-05
3.94563e-05
3.94319e-05
3.94056e-05
3.93773e-05
3.93467e-05
3.93137e-05
3.92781e-05
3.92396e-05
3.91977e-05
3.91521e-05
3.91022e-05
3.90473e-05
3.89864e-05
3.89184e-05
3.88418e-05
3.8755e-05
3.86555e-05
3.85405e-05
3.84066e-05
3.82491e-05
3.80625e-05
3.78387e-05
3.75658e-05
3.72271e-05
3.68153e-05
3.63137e-05
3.56082e-05
3.43357e-05
3.23151e-05
3.29557e-05
4.48105e-05
7.19676e-05
0.000108507
0.000146802
3.97169e-05
3.97126e-05
3.97086e-05
3.97049e-05
3.97013e-05
3.96978e-05
3.96941e-05
3.96902e-05
3.96859e-05
3.96813e-05
3.96762e-05
3.96706e-05
3.96648e-05
3.96586e-05
3.9652e-05
3.96452e-05
3.96381e-05
3.96307e-05
3.96229e-05
3.96148e-05
3.96062e-05
3.95972e-05
3.95875e-05
3.95773e-05
3.95663e-05
3.95546e-05
3.9542e-05
3.95285e-05
3.95139e-05
3.94983e-05
3.94815e-05
3.94635e-05
3.94441e-05
3.94232e-05
3.94008e-05
3.93766e-05
3.93506e-05
3.93226e-05
3.92924e-05
3.92598e-05
3.92245e-05
3.91862e-05
3.91445e-05
3.9099e-05
3.90491e-05
3.89939e-05
3.89328e-05
3.88644e-05
3.87876e-05
3.87005e-05
3.86012e-05
3.8487e-05
3.83548e-05
3.82004e-05
3.80188e-05
3.7803e-05
3.75425e-05
3.7223e-05
3.68291e-05
3.63584e-05
3.57375e-05
3.47782e-05
3.30532e-05
3.15378e-05
3.63761e-05
5.51866e-05
8.65867e-05
0.000122479
0.000158105
3.96763e-05
3.9672e-05
3.96675e-05
3.96628e-05
3.9658e-05
3.96532e-05
3.96484e-05
3.96435e-05
3.96384e-05
3.96331e-05
3.96275e-05
3.96215e-05
3.96152e-05
3.96084e-05
3.96012e-05
3.95936e-05
3.95855e-05
3.9577e-05
3.95681e-05
3.95586e-05
3.95486e-05
3.95381e-05
3.95269e-05
3.95151e-05
3.95026e-05
3.94893e-05
3.94751e-05
3.946e-05
3.94438e-05
3.94266e-05
3.94081e-05
3.93884e-05
3.93673e-05
3.93446e-05
3.93202e-05
3.9294e-05
3.92658e-05
3.92354e-05
3.92025e-05
3.91669e-05
3.91283e-05
3.90861e-05
3.904e-05
3.89893e-05
3.89333e-05
3.88712e-05
3.88018e-05
3.8724e-05
3.86361e-05
3.85362e-05
3.8422e-05
3.82904e-05
3.81378e-05
3.79595e-05
3.77494e-05
3.7498e-05
3.71923e-05
3.68182e-05
3.63629e-05
3.57963e-05
3.4992e-05
3.36668e-05
3.17024e-05
3.22754e-05
4.32525e-05
6.82468e-05
0.000101158
0.000134657
0.000167751
3.96266e-05
3.96231e-05
3.96191e-05
3.96146e-05
3.96097e-05
3.96044e-05
3.95989e-05
3.95931e-05
3.95871e-05
3.95809e-05
3.95744e-05
3.95676e-05
3.95605e-05
3.9553e-05
3.95451e-05
3.95367e-05
3.95278e-05
3.95184e-05
3.95084e-05
3.94979e-05
3.94868e-05
3.9475e-05
3.94625e-05
3.94493e-05
3.94353e-05
3.94205e-05
3.94047e-05
3.93878e-05
3.93699e-05
3.93509e-05
3.93305e-05
3.93087e-05
3.92854e-05
3.92604e-05
3.92336e-05
3.92047e-05
3.91735e-05
3.91399e-05
3.91034e-05
3.90637e-05
3.90204e-05
3.89731e-05
3.8921e-05
3.88636e-05
3.87999e-05
3.87289e-05
3.86495e-05
3.85602e-05
3.84591e-05
3.8344e-05
3.82122e-05
3.80601e-05
3.78836e-05
3.76769e-05
3.74319e-05
3.7136e-05
3.67759e-05
3.63396e-05
3.58026e-05
3.50853e-05
3.40219e-05
3.22729e-05
3.09361e-05
3.581e-05
5.37006e-05
8.26931e-05
0.000114437
0.000144747
0.000175983
3.95674e-05
3.95644e-05
3.95609e-05
3.95568e-05
3.95522e-05
3.95472e-05
3.95416e-05
3.95356e-05
3.95292e-05
3.95224e-05
3.95152e-05
3.95076e-05
3.94996e-05
3.94912e-05
3.94824e-05
3.94731e-05
3.94633e-05
3.94529e-05
3.94419e-05
3.94303e-05
3.9418e-05
3.94049e-05
3.93911e-05
3.93765e-05
3.9361e-05
3.93445e-05
3.93269e-05
3.93083e-05
3.92884e-05
3.92672e-05
3.92445e-05
3.92203e-05
3.91944e-05
3.91665e-05
3.91365e-05
3.91042e-05
3.90692e-05
3.90313e-05
3.89902e-05
3.89453e-05
3.88962e-05
3.88422e-05
3.87828e-05
3.87171e-05
3.8644e-05
3.85625e-05
3.84711e-05
3.83681e-05
3.82514e-05
3.81183e-05
3.79656e-05
3.77893e-05
3.75841e-05
3.73427e-05
3.70533e-05
3.67023e-05
3.62792e-05
3.57629e-05
3.50883e-05
3.41657e-05
3.27291e-05
3.08953e-05
3.19599e-05
4.31182e-05
6.69861e-05
9.69573e-05
0.000125563
0.000152823
0.000183006
3.94996e-05
3.94964e-05
3.94927e-05
3.94887e-05
3.94842e-05
3.94792e-05
3.94737e-05
3.94676e-05
3.94611e-05
3.9454e-05
3.94464e-05
3.94383e-05
3.94297e-05
3.94205e-05
3.94108e-05
3.94006e-05
3.93897e-05
3.93782e-05
3.93661e-05
3.93532e-05
3.93396e-05
3.93252e-05
3.93098e-05
3.92936e-05
3.92763e-05
3.92579e-05
3.92384e-05
3.92176e-05
3.91954e-05
3.91716e-05
3.91463e-05
3.91191e-05
3.90898e-05
3.90584e-05
3.90245e-05
3.89879e-05
3.89483e-05
3.89052e-05
3.88582e-05
3.88069e-05
3.87507e-05
3.86889e-05
3.86206e-05
3.8545e-05
3.84608e-05
3.83668e-05
3.82612e-05
3.8142e-05
3.80066e-05
3.78521e-05
3.76745e-05
3.74689e-05
3.72284e-05
3.69422e-05
3.65961e-05
3.61793e-05
3.56772e-05
3.50274e-05
3.41761e-05
3.29652e-05
3.1212e-05
3.04207e-05
3.62528e-05
5.42567e-05
8.15855e-05
0.000109588
0.000134171
0.000159182
0.000188991
3.94224e-05
3.94187e-05
3.94146e-05
3.94101e-05
3.94052e-05
3.93998e-05
3.9394e-05
3.93876e-05
3.93808e-05
3.93733e-05
3.93653e-05
3.93567e-05
3.93474e-05
3.93376e-05
3.93271e-05
3.93159e-05
3.9304e-05
3.92913e-05
3.92779e-05
3.92637e-05
3.92486e-05
3.92325e-05
3.92154e-05
3.91973e-05
3.9178e-05
3.91574e-05
3.91355e-05
3.9112e-05
3.9087e-05
3.90603e-05
3.90316e-05
3.90007e-05
3.89676e-05
3.89319e-05
3.88933e-05
3.88515e-05
3.88061e-05
3.87568e-05
3.8703e-05
3.86441e-05
3.85794e-05
3.85082e-05
3.84294e-05
3.83421e-05
3.82447e-05
3.81357e-05
3.80131e-05
3.78744e-05
3.77167e-05
3.75362e-05
3.73283e-05
3.7086e-05
3.67994e-05
3.64543e-05
3.60379e-05
3.55399e-05
3.49088e-05
3.40922e-05
3.30161e-05
3.14641e-05
3.00141e-05
3.23496e-05
4.47377e-05
6.82264e-05
9.56744e-05
0.000119597
0.000140343
0.000164162
0.000194015
3.93331e-05
3.93291e-05
3.93246e-05
3.93196e-05
3.93141e-05
3.93081e-05
3.93016e-05
3.92946e-05
3.92871e-05
3.92789e-05
3.92701e-05
3.92607e-05
3.92507e-05
3.92399e-05
3.92284e-05
3.92161e-05
3.92029e-05
3.9189e-05
3.91741e-05
3.91583e-05
3.91414e-05
3.91235e-05
3.91043e-05
3.9084e-05
3.90622e-05
3.9039e-05
3.90142e-05
3.89878e-05
3.89594e-05
3.8929e-05
3.88963e-05
3.88612e-05
3.88234e-05
3.87825e-05
3.87383e-05
3.86904e-05
3.86383e-05
3.85815e-05
3.85195e-05
3.84516e-05
3.83768e-05
3.82944e-05
3.82032e-05
3.81017e-05
3.79884e-05
3.78614e-05
3.77181e-05
3.75557e-05
3.73707e-05
3.71582e-05
3.69114e-05
3.66208e-05
3.62719e-05
3.58511e-05
3.53473e-05
3.47233e-05
3.39323e-05
3.29309e-05
3.15412e-05
2.99706e-05
3.04248e-05
3.82885e-05
5.72121e-05
8.31713e-05
0.000107624
0.000126592
0.000144441
0.000167975
0.000197977
3.92288e-05
3.92245e-05
3.92196e-05
3.92141e-05
3.92081e-05
3.92015e-05
3.91942e-05
3.91864e-05
3.91779e-05
3.91688e-05
3.9159e-05
3.91485e-05
3.91373e-05
3.91252e-05
3.91124e-05
3.90986e-05
3.9084e-05
3.90683e-05
3.90517e-05
3.90339e-05
3.90149e-05
3.89947e-05
3.89731e-05
3.89501e-05
3.89254e-05
3.88991e-05
3.88709e-05
3.88408e-05
3.88084e-05
3.87737e-05
3.87363e-05
3.86961e-05
3.86526e-05
3.86057e-05
3.85548e-05
3.84995e-05
3.84394e-05
3.83738e-05
3.83019e-05
3.82231e-05
3.81362e-05
3.80402e-05
3.79338e-05
3.78151e-05
3.76824e-05
3.75331e-05
3.73644e-05
3.71728e-05
3.69532e-05
3.66989e-05
3.63998e-05
3.6043e-05
3.56112e-05
3.50949e-05
3.44656e-05
3.36891e-05
3.2727e-05
3.14416e-05
2.99272e-05
2.95308e-05
3.43003e-05
4.88077e-05
7.21624e-05
9.69881e-05
0.000116402
0.000130732
0.000146876
0.000170619
0.000200534
3.91075e-05
3.91024e-05
3.90968e-05
3.90906e-05
3.90838e-05
3.90764e-05
3.90683e-05
3.90595e-05
3.90499e-05
3.90397e-05
3.90286e-05
3.90168e-05
3.90041e-05
3.89905e-05
3.89759e-05
3.89604e-05
3.89438e-05
3.89261e-05
3.89072e-05
3.8887e-05
3.88654e-05
3.88424e-05
3.88178e-05
3.87916e-05
3.87634e-05
3.87333e-05
3.87011e-05
3.86665e-05
3.86293e-05
3.85894e-05
3.85464e-05
3.84999e-05
3.84498e-05
3.83954e-05
3.83365e-05
3.82723e-05
3.82024e-05
3.8126e-05
3.80422e-05
3.795e-05
3.78483e-05
3.77356e-05
3.76103e-05
3.74704e-05
3.73134e-05
3.71365e-05
3.69358e-05
3.67062e-05
3.64404e-05
3.61283e-05
3.57567e-05
3.53102e-05
3.47715e-05
3.41281e-05
3.3364e-05
3.24129e-05
3.11828e-05
2.97602e-05
2.90622e-05
3.20112e-05
4.29331e-05
6.30576e-05
8.73053e-05
0.000107975
0.000121696
0.000132533
0.000147928
0.000171901
0.000201408
3.89679e-05
3.89613e-05
3.89543e-05
3.89467e-05
3.89386e-05
3.89298e-05
3.89203e-05
3.89101e-05
3.88991e-05
3.88874e-05
3.88747e-05
3.88612e-05
3.88466e-05
3.88311e-05
3.88145e-05
3.87967e-05
3.87777e-05
3.87575e-05
3.87358e-05
3.87127e-05
3.8688e-05
3.86616e-05
3.86333e-05
3.86031e-05
3.85707e-05
3.8536e-05
3.84988e-05
3.84588e-05
3.84158e-05
3.83695e-05
3.83195e-05
3.82656e-05
3.82071e-05
3.81438e-05
3.80749e-05
3.79999e-05
3.79179e-05
3.78282e-05
3.77296e-05
3.76208e-05
3.75005e-05
3.7367e-05
3.7218e-05
3.70512e-05
3.68634e-05
3.66506e-05
3.64071e-05
3.61251e-05
3.57941e-05
3.54005e-05
3.49305e-05
3.43685e-05
3.37033e-05
3.29266e-05
3.19683e-05
3.07681e-05
2.94399e-05
2.87178e-05
3.07644e-05
3.91808e-05
5.61345e-05
7.88257e-05
0.000100355
0.000115216
0.000123804
0.000132655
0.000147732
0.000171482
0.000199879
3.88075e-05
3.87986e-05
3.87894e-05
3.87797e-05
3.87694e-05
3.87585e-05
3.8747e-05
3.87347e-05
3.87216e-05
3.87076e-05
3.86928e-05
3.86769e-05
3.86599e-05
3.86419e-05
3.86226e-05
3.8602e-05
3.858e-05
3.85565e-05
3.85314e-05
3.85046e-05
3.8476e-05
3.84453e-05
3.84125e-05
3.83774e-05
3.83398e-05
3.82994e-05
3.8256e-05
3.82094e-05
3.81592e-05
3.8105e-05
3.80465e-05
3.79832e-05
3.79146e-05
3.784e-05
3.77588e-05
3.76701e-05
3.75731e-05
3.74665e-05
3.73491e-05
3.72194e-05
3.70754e-05
3.6915e-05
3.67355e-05
3.65335e-05
3.63044e-05
3.6042e-05
3.57374e-05
3.53799e-05
3.49564e-05
3.44516e-05
3.38618e-05
3.31674e-05
3.2364e-05
3.13845e-05
3.02037e-05
2.89777e-05
2.83852e-05
3.01288e-05
3.70304e-05
5.13603e-05
7.1944e-05
9.3411e-05
0.000109764
0.000118654
0.000123364
0.000131652
0.000146669
0.000169049
0.000196285
3.86204e-05
3.86089e-05
3.85969e-05
3.85844e-05
3.85714e-05
3.85577e-05
3.85433e-05
3.85281e-05
3.85121e-05
3.84951e-05
3.84772e-05
3.84581e-05
3.84379e-05
3.84164e-05
3.83936e-05
3.83692e-05
3.83433e-05
3.83157e-05
3.82862e-05
3.82547e-05
3.82211e-05
3.81851e-05
3.81466e-05
3.81053e-05
3.8061e-05
3.80135e-05
3.79624e-05
3.79074e-05
3.78481e-05
3.7784e-05
3.77147e-05
3.76396e-05
3.7558e-05
3.74692e-05
3.73722e-05
3.72661e-05
3.71496e-05
3.70212e-05
3.68794e-05
3.67221e-05
3.65469e-05
3.63509e-05
3.61301e-05
3.58791e-05
3.55907e-05
3.52554e-05
3.48616e-05
3.43979e-05
3.38515e-05
3.32175e-05
3.25011e-05
3.16578e-05
3.06432e-05
2.94915e-05
2.84038e-05
2.80605e-05
2.98972e-05
3.6046e-05
4.84627e-05
6.68659e-05
8.74137e-05
0.000104662
0.000115019
0.000118917
0.000121202
0.000129301
0.000142915
0.000163925
0.000190045
3.83962e-05
3.83818e-05
3.83668e-05
3.83511e-05
3.83348e-05
3.83178e-05
3.82999e-05
3.82811e-05
3.82614e-05
3.82406e-05
3.82187e-05
3.81956e-05
3.81711e-05
3.81452e-05
3.81177e-05
3.80885e-05
3.80575e-05
3.80244e-05
3.79892e-05
3.79517e-05
3.79116e-05
3.78687e-05
3.78227e-05
3.77735e-05
3.77207e-05
3.7664e-05
3.76029e-05
3.75371e-05
3.74661e-05
3.73893e-05
3.7306e-05
3.72155e-05
3.71169e-05
3.70093e-05
3.68915e-05
3.67622e-05
3.66197e-05
3.64623e-05
3.62877e-05
3.60932e-05
3.58752e-05
3.56289e-05
3.5348e-05
3.50241e-05
3.46468e-05
3.42057e-05
3.36894e-05
3.30979e-05
3.2416e-05
3.16566e-05
3.07648e-05
2.97287e-05
2.86312e-05
2.77878e-05
2.78207e-05
3.00316e-05
3.59515e-05
4.70835e-05
6.35129e-05
8.25993e-05
9.98781e-05
0.000111573
0.000116487
0.000117064
0.000119139
0.000124891
0.000136464
0.000155804
0.000180941
3.81184e-05
3.81009e-05
3.80826e-05
3.80636e-05
3.80436e-05
3.80227e-05
3.80008e-05
3.79778e-05
3.79537e-05
3.79283e-05
3.79015e-05
3.78733e-05
3.78435e-05
3.7812e-05
3.77786e-05
3.77431e-05
3.77055e-05
3.76655e-05
3.76229e-05
3.75774e-05
3.75288e-05
3.74769e-05
3.74213e-05
3.73617e-05
3.72976e-05
3.72288e-05
3.71545e-05
3.70744e-05
3.69877e-05
3.68937e-05
3.67915e-05
3.66803e-05
3.65588e-05
3.64258e-05
3.62796e-05
3.61186e-05
3.59407e-05
3.57432e-05
3.55227e-05
3.52749e-05
3.49936e-05
3.46713e-05
3.42988e-05
3.38665e-05
3.33639e-05
3.27928e-05
3.21419e-05
3.14306e-05
3.06141e-05
2.96741e-05
2.86488e-05
2.76944e-05
2.71926e-05
2.78405e-05
3.06132e-05
3.66059e-05
4.68757e-05
6.15835e-05
7.8936e-05
9.54975e-05
0.000107897
0.000114248
0.000115007
0.0001139
0.000114807
0.000118094
0.000127387
0.00014453
0.00016882
3.77632e-05
3.77421e-05
3.772e-05
3.76969e-05
3.76727e-05
3.76473e-05
3.76207e-05
3.75926e-05
3.75632e-05
3.75321e-05
3.74994e-05
3.74648e-05
3.74283e-05
3.73897e-05
3.73487e-05
3.73053e-05
3.72591e-05
3.721e-05
3.71576e-05
3.71017e-05
3.7042e-05
3.6978e-05
3.69094e-05
3.68358e-05
3.67567e-05
3.66714e-05
3.65794e-05
3.64797e-05
3.63716e-05
3.62541e-05
3.61261e-05
3.59862e-05
3.58329e-05
3.56644e-05
3.54787e-05
3.52732e-05
3.50446e-05
3.47885e-05
3.44992e-05
3.41692e-05
3.37895e-05
3.33535e-05
3.28507e-05
3.22846e-05
3.16462e-05
3.09624e-05
3.01919e-05
2.93208e-05
2.83765e-05
2.7451e-05
2.67938e-05
2.68259e-05
2.82285e-05
3.16808e-05
3.78872e-05
4.74991e-05
6.06334e-05
7.61012e-05
9.14005e-05
0.000103804
0.00011137
0.000113486
0.000111639
0.000110172
0.000108817
0.00010942
0.000116183
0.000130874
0.000153442
3.72949e-05
3.72691e-05
3.72422e-05
3.7214e-05
3.71844e-05
3.71533e-05
3.71206e-05
3.70862e-05
3.70499e-05
3.70117e-05
3.69713e-05
3.69286e-05
3.68834e-05
3.68356e-05
3.67847e-05
3.67308e-05
3.66733e-05
3.66121e-05
3.65467e-05
3.64768e-05
3.64019e-05
3.63216e-05
3.62354e-05
3.61427e-05
3.60427e-05
3.59346e-05
3.58176e-05
3.56907e-05
3.55526e-05
3.5402e-05
3.52374e-05
3.50569e-05
3.48584e-05
3.46392e-05
3.43959e-05
3.4124e-05
3.38177e-05
3.34697e-05
3.30723e-05
3.26168e-05
3.21036e-05
3.15338e-05
3.0894e-05
3.02241e-05
2.94836e-05
2.86642e-05
2.77927e-05
2.69496e-05
2.63109e-05
2.61462e-05
2.69566e-05
2.92063e-05
3.33277e-05
3.96898e-05
4.86025e-05
6.01224e-05
7.35421e-05
8.71908e-05
9.90186e-05
0.000107293
0.000110981
0.0001103
0.000107713
0.000105315
0.000101638
9.94928e-05
0.00010341
0.00011536
0.000134478
3.66565e-05
3.66244e-05
3.65908e-05
3.65557e-05
3.65188e-05
3.64799e-05
3.6439e-05
3.6396e-05
3.63505e-05
3.63025e-05
3.62518e-05
3.6198e-05
3.61411e-05
3.60806e-05
3.60163e-05
3.59478e-05
3.58748e-05
3.57969e-05
3.57134e-05
3.5624e-05
3.55281e-05
3.54251e-05
3.53142e-05
3.51947e-05
3.50654e-05
3.49254e-05
3.47733e-05
3.46077e-05
3.4427e-05
3.42291e-05
3.40116e-05
3.37718e-05
3.35058e-05
3.32091e-05
3.28757e-05
3.24981e-05
3.20704e-05
3.15852e-05
3.10483e-05
3.04532e-05
2.98351e-05
2.91739e-05
2.84531e-05
2.76867e-05
2.68916e-05
2.61623e-05
2.56311e-05
2.55129e-05
2.61372e-05
2.78221e-05
3.08671e-05
3.54797e-05
4.17425e-05
4.96978e-05
5.93819e-05
7.0531e-05
8.22359e-05
9.30851e-05
0.000101595
0.000106565
0.000107461
0.000105154
0.000103218
9.96433e-05
9.39491e-05
8.91268e-05
8.96627e-05
9.77077e-05
0.000112446
3.57509e-05
3.57099e-05
3.56671e-05
3.56221e-05
3.55749e-05
3.55253e-05
3.5473e-05
3.54178e-05
3.53595e-05
3.5298e-05
3.52327e-05
3.51636e-05
3.50902e-05
3.50122e-05
3.49291e-05
3.48404e-05
3.47457e-05
3.46444e-05
3.45357e-05
3.44189e-05
3.42936e-05
3.41586e-05
3.40128e-05
3.38549e-05
3.36837e-05
3.34974e-05
3.32943e-05
3.30722e-05
3.28283e-05
3.25594e-05
3.22614e-05
3.19295e-05
3.15573e-05
3.11396e-05
3.06691e-05
3.01507e-05
2.95868e-05
2.89702e-05
2.83583e-05
2.77137e-05
2.70393e-05
2.63421e-05
2.5682e-05
2.51439e-05
2.47725e-05
2.48524e-05
2.55375e-05
2.70159e-05
2.94838e-05
3.30849e-05
3.78209e-05
4.35411e-05
5.01068e-05
5.76048e-05
6.62224e-05
7.57621e-05
8.53711e-05
9.37688e-05
9.96842e-05
0.000102219
0.000101275
9.83029e-05
9.74517e-05
9.32651e-05
8.62482e-05
7.92303e-05
7.64718e-05
8.0427e-05
9.05345e-05
3.44037e-05
3.43501e-05
3.42941e-05
3.42353e-05
3.41736e-05
3.41086e-05
3.40401e-05
3.39679e-05
3.38916e-05
3.38108e-05
3.37253e-05
3.36345e-05
3.3538e-05
3.34354e-05
3.33259e-05
3.3209e-05
3.30839e-05
3.29498e-05
3.28058e-05
3.26512e-05
3.24846e-05
3.23045e-05
3.21093e-05
3.1897e-05
3.16655e-05
3.14122e-05
3.1134e-05
3.08274e-05
3.04881e-05
3.01116e-05
2.96935e-05
2.92282e-05
2.87192e-05
2.81705e-05
2.75764e-05
2.70116e-05
2.6432e-05
2.5832e-05
2.52443e-05
2.47111e-05
2.42756e-05
2.39491e-05
2.39464e-05
2.4327e-05
2.51832e-05
2.66208e-05
2.8752e-05
3.16679e-05
3.53666e-05
3.96729e-05
4.42617e-05
4.89141e-05
5.38517e-05
5.97182e-05
6.69597e-05
7.51579e-05
8.31475e-05
8.96312e-05
9.35294e-05
9.42166e-05
9.1964e-05
9.18289e-05
9.06192e-05
8.60137e-05
7.83696e-05
6.99821e-05
6.46088e-05
6.47857e-05
7.01887e-05
3.22996e-05
3.22289e-05
3.2155e-05
3.20776e-05
3.19963e-05
3.19108e-05
3.18207e-05
3.17257e-05
3.16253e-05
3.15191e-05
3.14067e-05
3.12874e-05
3.11606e-05
3.10256e-05
3.08817e-05
3.07281e-05
3.05636e-05
3.03873e-05
3.01977e-05
2.99929e-05
2.97707e-05
2.9529e-05
2.92654e-05
2.89772e-05
2.86617e-05
2.83159e-05
2.79374e-05
2.75228e-05
2.7071e-05
2.6583e-05
2.60638e-05
2.55128e-05
2.50003e-05
2.45093e-05
2.40477e-05
2.36351e-05
2.32402e-05
2.29376e-05
2.28577e-05
2.30042e-05
2.33971e-05
2.40735e-05
2.50813e-05
2.64804e-05
2.83302e-05
3.06748e-05
3.35033e-05
3.66854e-05
3.99004e-05
4.27374e-05
4.50202e-05
4.71743e-05
5.02504e-05
5.51399e-05
6.17287e-05
6.8948e-05
7.54865e-05
8.02821e-05
8.25862e-05
8.19934e-05
8.07034e-05
8.20566e-05
8.11685e-05
7.66749e-05
6.91026e-05
6.03449e-05
5.37004e-05
5.16314e-05
5.36237e-05
2.88962e-05
2.88061e-05
2.87122e-05
2.8614e-05
2.85111e-05
2.8403e-05
2.82895e-05
2.81699e-05
2.8044e-05
2.7911e-05
2.77705e-05
2.76217e-05
2.7464e-05
2.72965e-05
2.71183e-05
2.69287e-05
2.67253e-05
2.6505e-05
2.62659e-05
2.60069e-05
2.57269e-05
2.54249e-05
2.51004e-05
2.47536e-05
2.43855e-05
2.39984e-05
2.35942e-05
2.31882e-05
2.2795e-05
2.2428e-05
2.21007e-05
2.18266e-05
2.16175e-05
2.15122e-05
2.15949e-05
2.18162e-05
2.21688e-05
2.26577e-05
2.32918e-05
2.40856e-05
2.50608e-05
2.62495e-05
2.76911e-05
2.94041e-05
3.13582e-05
3.34621e-05
3.54818e-05
3.70268e-05
3.76601e-05
3.735e-05
3.69789e-05
3.76426e-05
4.01802e-05
4.46315e-05
5.03894e-05
5.62585e-05
6.09633e-05
6.35871e-05
6.4656e-05
6.51903e-05
6.53998e-05
6.6125e-05
6.67801e-05
6.31496e-05
5.6294e-05
4.80157e-05
4.15843e-05
3.9471e-05
4.05559e-05
2.34589e-05
2.33652e-05
2.32685e-05
2.31682e-05
2.3064e-05
2.29557e-05
2.28428e-05
2.27249e-05
2.26016e-05
2.24724e-05
2.2337e-05
2.21948e-05
2.20453e-05
2.18879e-05
2.1722e-05
2.15474e-05
2.13658e-05
2.118e-05
2.0992e-05
2.08041e-05
2.0619e-05
2.04403e-05
2.02717e-05
2.0118e-05
1.99841e-05
1.98759e-05
1.97909e-05
1.98697e-05
2.0034e-05
2.02576e-05
2.05324e-05
2.08548e-05
2.12212e-05
2.16265e-05
2.20647e-05
2.25317e-05
2.30285e-05
2.35662e-05
2.41648e-05
2.48541e-05
2.56702e-05
2.66241e-05
2.76575e-05
2.8635e-05
2.94045e-05
2.97891e-05
2.94959e-05
2.82204e-05
2.60333e-05
2.34399e-05
2.27634e-05
2.35252e-05
2.5722e-05
2.90953e-05
3.31658e-05
3.73258e-05
4.09798e-05
4.36558e-05
4.53732e-05
4.64172e-05
4.68729e-05
4.66895e-05
4.54838e-05
4.19668e-05
3.65359e-05
3.05187e-05
2.59818e-05
2.57698e-05
2.81478e-05
1.67531e-05
1.68418e-05
1.69294e-05
1.70151e-05
1.70985e-05
1.71792e-05
1.72569e-05
1.73314e-05
1.74025e-05
1.74702e-05
1.75348e-05
1.7605e-05
1.76835e-05
1.77714e-05
1.78697e-05
1.79788e-05
1.80992e-05
1.82311e-05
1.83745e-05
1.85292e-05
1.86947e-05
1.88699e-05
1.90534e-05
1.92429e-05
1.94353e-05
1.96267e-05
1.98114e-05
1.99841e-05
2.01374e-05
2.02623e-05
2.03498e-05
2.03913e-05
2.03807e-05
2.03175e-05
2.02122e-05
2.00898e-05
1.99873e-05
1.99295e-05
1.9929e-05
2.00184e-05
2.02408e-05
2.04715e-05
2.03391e-05
1.96264e-05
1.83907e-05
1.66929e-05
1.49412e-05
1.3725e-05
1.24874e-05
1.15847e-05
1.14146e-05
1.19555e-05
1.31752e-05
1.49636e-05
1.71437e-05
1.95137e-05
2.18048e-05
2.3759e-05
2.52057e-05
2.61011e-05
2.63803e-05
2.59338e-05
2.46184e-05
2.22479e-05
1.90628e-05
1.57129e-05
1.31085e-05
1.2407e-05
1.39993e-05
1.44118e-05
1.45336e-05
1.46545e-05
1.47742e-05
1.48919e-05
1.50067e-05
1.5118e-05
1.5225e-05
1.53266e-05
1.54221e-05
1.55096e-05
1.5579e-05
1.56285e-05
1.5658e-05
1.56679e-05
1.56576e-05
1.56262e-05
1.55726e-05
1.54947e-05
1.53905e-05
1.52573e-05
1.5092e-05
1.48909e-05
1.46502e-05
1.43656e-05
1.40325e-05
1.36464e-05
1.3203e-05
1.26987e-05
1.21313e-05
1.15008e-05
1.08119e-05
1.00777e-05
9.32753e-06
8.61616e-06
8.01398e-06
7.55187e-06
7.07748e-06
6.45714e-06
5.71293e-06
5.10555e-06
5.25112e-06
5.45946e-06
5.74284e-06
5.6698e-06
5.36144e-06
4.96995e-06
4.60921e-06
4.29448e-06
4.08844e-06
4.00523e-06
4.03206e-06
4.11533e-06
4.20054e-06
4.35855e-06
4.79759e-06
5.38146e-06
6.01785e-06
6.50047e-06
6.76773e-06
6.81354e-06
6.65803e-06
6.25709e-06
5.68218e-06
5.31994e-06
4.85245e-06
4.32915e-06
4.02868e-06
3.96934e-06
3.99597e-05
3.99547e-05
3.99498e-05
3.99467e-05
3.99446e-05
3.99459e-05
3.99503e-05
3.9955e-05
3.99626e-05
3.99677e-05
3.9973e-05
3.99762e-05
3.99732e-05
3.99696e-05
3.99604e-05
3.99516e-05
3.99497e-05
3.99492e-05
3.99672e-05
3.99961e-05
3.99954e-05
3.99543e-05
3.99438e-05
3.99209e-05
3.98687e-05
3.98283e-05
3.98178e-05
3.98359e-05
3.986e-05
3.98742e-05
3.98639e-05
3.98369e-05
3.98124e-05
3.98001e-05
3.98095e-05
3.98214e-05
3.98131e-05
3.97959e-05
3.98004e-05
3.98304e-05
3.98775e-05
3.98926e-05
3.9883e-05
3.98833e-05
3.98918e-05
3.99019e-05
3.99096e-05
3.99052e-05
3.98934e-05
3.9882e-05
3.98757e-05
3.98755e-05
3.98817e-05
3.98927e-05
3.99e-05
3.99005e-05
3.98948e-05
3.98886e-05
3.98841e-05
3.99154e-05
3.99147e-05
3.99152e-05
3.99172e-05
3.99208e-05
3.99258e-05
3.99314e-05
3.99371e-05
3.99421e-05
3.99453e-05
3.99468e-05
3.99453e-05
3.99411e-05
3.99352e-05
3.99286e-05
3.99249e-05
3.99269e-05
3.99368e-05
3.99585e-05
3.99729e-05
3.99569e-05
3.99262e-05
3.99144e-05
3.98847e-05
3.98366e-05
3.98037e-05
3.97983e-05
3.98167e-05
3.98395e-05
3.98522e-05
3.98426e-05
3.98173e-05
3.97935e-05
3.97799e-05
3.97854e-05
3.9797e-05
3.9794e-05
3.97791e-05
3.97753e-05
3.97931e-05
3.9832e-05
3.98599e-05
3.98639e-05
3.98608e-05
3.98625e-05
3.98686e-05
3.98766e-05
3.98808e-05
3.9878e-05
3.98702e-05
3.98614e-05
3.98544e-05
3.9851e-05
3.98521e-05
3.98564e-05
3.98613e-05
3.98643e-05
3.98646e-05
3.98629e-05
3.98824e-05
3.98854e-05
3.98892e-05
3.98938e-05
3.98989e-05
3.9904e-05
3.99085e-05
3.99121e-05
3.99141e-05
3.99146e-05
3.99133e-05
3.991e-05
3.99056e-05
3.99011e-05
3.98984e-05
3.99e-05
3.99083e-05
3.9924e-05
3.99404e-05
3.99404e-05
3.99191e-05
3.98962e-05
3.98804e-05
3.98468e-05
3.98043e-05
3.97783e-05
3.97773e-05
3.97956e-05
3.98168e-05
3.98281e-05
3.98192e-05
3.97958e-05
3.97728e-05
3.97582e-05
3.97601e-05
3.97702e-05
3.97712e-05
3.976e-05
3.97517e-05
3.97592e-05
3.97871e-05
3.98181e-05
3.98339e-05
3.98361e-05
3.98353e-05
3.98369e-05
3.98416e-05
3.98472e-05
3.98501e-05
3.98486e-05
3.98435e-05
3.98367e-05
3.98301e-05
3.98252e-05
3.98229e-05
3.98231e-05
3.98247e-05
3.98265e-05
3.98277e-05
3.9855e-05
3.98592e-05
3.98636e-05
3.98679e-05
3.98718e-05
3.98751e-05
3.98774e-05
3.98786e-05
3.98786e-05
3.98774e-05
3.98751e-05
3.98722e-05
3.98696e-05
3.98684e-05
3.98704e-05
3.98776e-05
3.98905e-05
3.99053e-05
3.99121e-05
3.99023e-05
3.98812e-05
3.98624e-05
3.98423e-05
3.98076e-05
3.97712e-05
3.97516e-05
3.97542e-05
3.97723e-05
3.97918e-05
3.98018e-05
3.97935e-05
3.97719e-05
3.97499e-05
3.97345e-05
3.97334e-05
3.97414e-05
3.97449e-05
3.97375e-05
3.97279e-05
3.97277e-05
3.97446e-05
3.97717e-05
3.97938e-05
3.98039e-05
3.9806e-05
3.98059e-05
3.98072e-05
3.98104e-05
3.98141e-05
3.98162e-05
3.98157e-05
3.98126e-05
3.98078e-05
3.98023e-05
3.97972e-05
3.97934e-05
3.97909e-05
3.97897e-05
3.97893e-05
3.98243e-05
3.98279e-05
3.98311e-05
3.98339e-05
3.9836e-05
3.98375e-05
3.98382e-05
3.98382e-05
3.98375e-05
3.98363e-05
3.98349e-05
3.9834e-05
3.98345e-05
3.98375e-05
3.98444e-05
3.98556e-05
3.98687e-05
3.98776e-05
3.98752e-05
3.98608e-05
3.98419e-05
3.98242e-05
3.98007e-05
3.97673e-05
3.97371e-05
3.97232e-05
3.97285e-05
3.97462e-05
3.97642e-05
3.9773e-05
3.97653e-05
3.97454e-05
3.97243e-05
3.97085e-05
3.97047e-05
3.97103e-05
3.9715e-05
3.9711e-05
3.97021e-05
3.96973e-05
3.97047e-05
3.97243e-05
3.97467e-05
3.97627e-05
3.97702e-05
3.97722e-05
3.97724e-05
3.97732e-05
3.9775e-05
3.97771e-05
3.97785e-05
3.97784e-05
3.97767e-05
3.97736e-05
3.97696e-05
3.97653e-05
3.97612e-05
3.97578e-05
3.9755e-05
3.9785e-05
3.97874e-05
3.97894e-05
3.9791e-05
3.97921e-05
3.97929e-05
3.97933e-05
3.97934e-05
3.97934e-05
3.97937e-05
3.97945e-05
3.97966e-05
3.98008e-05
3.9808e-05
3.98182e-05
3.98299e-05
3.9839e-05
3.98405e-05
3.9832e-05
3.98166e-05
3.97997e-05
3.97812e-05
3.9756e-05
3.97255e-05
3.97013e-05
3.96924e-05
3.97e-05
3.97172e-05
3.97335e-05
3.97413e-05
3.97342e-05
3.97158e-05
3.96958e-05
3.96797e-05
3.96737e-05
3.96767e-05
3.96814e-05
3.96802e-05
3.96731e-05
3.96662e-05
3.96666e-05
3.96779e-05
3.96961e-05
3.97137e-05
3.97258e-05
3.97319e-05
3.97339e-05
3.97342e-05
3.97343e-05
3.97349e-05
3.97358e-05
3.97364e-05
3.97363e-05
3.97353e-05
3.97333e-05
3.97306e-05
3.97274e-05
3.9724e-05
3.97207e-05
3.97367e-05
3.97384e-05
3.974e-05
3.97414e-05
3.97427e-05
3.97439e-05
3.97451e-05
3.97465e-05
3.97483e-05
3.97509e-05
3.97546e-05
3.976e-05
3.97677e-05
3.97773e-05
3.97878e-05
3.97964e-05
3.97997e-05
3.97953e-05
3.9784e-05
3.97692e-05
3.97531e-05
3.97336e-05
3.97084e-05
3.96819e-05
3.96633e-05
3.96588e-05
3.9668e-05
3.96846e-05
3.96995e-05
3.97062e-05
3.96996e-05
3.96828e-05
3.96638e-05
3.96477e-05
3.96398e-05
3.96404e-05
3.96442e-05
3.96447e-05
3.96398e-05
3.96327e-05
3.96288e-05
3.96327e-05
3.96444e-05
3.96596e-05
3.96734e-05
3.9683e-05
3.96882e-05
3.96901e-05
3.96904e-05
3.96901e-05
3.96898e-05
3.96896e-05
3.96893e-05
3.96888e-05
3.96879e-05
3.96864e-05
3.96845e-05
3.96822e-05
3.96797e-05
3.96815e-05
3.96835e-05
3.96856e-05
3.96877e-05
3.96899e-05
3.96924e-05
3.96953e-05
3.96986e-05
3.97028e-05
3.9708e-05
3.97145e-05
3.97226e-05
3.97319e-05
3.97414e-05
3.97492e-05
3.97531e-05
3.97511e-05
3.97432e-05
3.97313e-05
3.97175e-05
3.97014e-05
3.96814e-05
3.96578e-05
3.96358e-05
3.96225e-05
3.96217e-05
3.96321e-05
3.9648e-05
3.96614e-05
3.96672e-05
3.96612e-05