/*--------------------------------*- C++ -*----------------------------------*\
| =========                 |                                                 |
| \\      /  F ield         | OpenFOAM: The Open Source CFD Toolbox           |
|  \\    /   O peration     | Version:  2312                                  |
|   \\  /    A nd           | Website:  www.openfoam.com                      |
|    \\/     M anipulation  |                                                 |
\*---------------------------------------------------------------------------*/
FoamFile
{
    version     2.0;
    format      ascii;
    arch        "LSB;label=32;scalar=64";
    class       volScalarField;
    location    "100";
    object      p;
}
// * * * * * * * * * * * * * * * * * * * * * * * * * * * * * * * * * * * * * //

dimensions      [0 2 -2 0 0 0 0];

internalField   nonuniform List<scalar> 
76025
(
0.00015727
0.000150157
0.000142815
0.000135423
0.000127974
0.00012045
0.000112545
0.000104891
9.69866e-05
8.90496e-05
8.102e-05
7.28337e-05
6.45099e-05
5.61785e-05
4.76797e-05
3.91621e-05
3.06855e-05
2.19514e-05
1.32042e-05
4.48784e-06
-4.25605e-06
-1.33115e-05
-2.23731e-05
-3.13952e-05
-4.04985e-05
-4.95519e-05
-5.88049e-05
-6.82992e-05
-7.74882e-05
-8.71995e-05
-9.66554e-05
-0.000106152
-0.000115811
-0.000125571
-0.000135317
-0.00014516
-0.000155082
-0.000165422
-0.000175804
-0.000186213
-0.000196674
-0.000207273
-0.000218339
-0.000229603
-0.000240753
-0.000252495
-0.00026449
-0.000276863
-0.000289363
-0.000302461
-0.000315964
-0.00033006
-0.000344934
-0.000360483
-0.00037673
-0.000394215
-0.000412408
-0.000432354
-0.000453513
-0.000476364
-0.000501201
-0.000528143
-0.000558109
-0.000590498
-0.000626035
-0.000667372
-0.000714404
-0.000765906
-0.000816139
0.000160869
0.000153413
0.000145871
0.000138251
0.000130522
0.000122643
0.000114714
0.000106702
9.85576e-05
9.03002e-05
8.19476e-05
7.35178e-05
6.50165e-05
5.64362e-05
4.77965e-05
3.91285e-05
3.03154e-05
2.149e-05
1.25428e-05
3.60667e-06
-5.46816e-06
-1.45781e-05
-2.37143e-05
-3.28695e-05
-4.21036e-05
-5.1444e-05
-6.08682e-05
-7.02437e-05
-7.96785e-05
-8.91687e-05
-9.86384e-05
-0.000108304
-0.000118019
-0.000127776
-0.000137684
-0.000147615
-0.000157707
-0.000167851
-0.000178028
-0.000188376
-0.000198835
-0.000209511
-0.000220304
-0.00023124
-0.000242444
-0.000253911
-0.00026563
-0.000277606
-0.000289975
-0.000302778
-0.000316037
-0.000329804
-0.000344175
-0.000359235
-0.000375083
-0.00039195
-0.000409824
-0.000428979
-0.000449546
-0.000471662
-0.000495667
-0.000522239
-0.000551426
-0.00058332
-0.000618473
-0.000658265
-0.000704171
-0.000755623
-0.000807739
0.000164525
0.000156804
0.000148993
0.000141085
0.000133059
0.000124944
0.000116735
0.000108417
9.99983e-05
9.14817e-05
8.28845e-05
7.42218e-05
6.54881e-05
5.6687e-05
4.78322e-05
3.88937e-05
2.98922e-05
2.08345e-05
1.17209e-05
2.55007e-06
-6.66837e-06
-1.59167e-05
-2.52072e-05
-3.4546e-05
-4.39391e-05
-5.33842e-05
-6.28474e-05
-7.23323e-05
-8.18697e-05
-9.14514e-05
-0.000101091
-0.000110798
-0.000120542
-0.000130334
-0.000140198
-0.00015011
-0.000160091
-0.000170146
-0.0001803
-0.000190577
-0.00020096
-0.000211464
-0.000222103
-0.000232919
-0.000243943
-0.000255168
-0.000266639
-0.000278387
-0.000290462
-0.000302897
-0.000315749
-0.000329085
-0.000342993
-0.000357563
-0.000372888
-0.000389105
-0.000406341
-0.000424776
-0.000444611
-0.000466055
-0.000489404
-0.000515041
-0.00054327
-0.000574348
-0.000608659
-0.000647574
-0.000693429
-0.000743243
-0.000793051
0.0001681
0.000160085
0.000151969
0.000143758
0.000135444
0.00012703
0.000118519
0.000109914
0.000101224
9.24529e-05
8.36048e-05
7.46852e-05
6.5697e-05
5.66442e-05
4.75327e-05
3.83633e-05
2.9144e-05
1.98764e-05
1.05643e-05
1.21077e-06
-8.17746e-06
-1.7601e-05
-2.70606e-05
-3.65524e-05
-4.60723e-05
-5.56187e-05
-6.51915e-05
-7.47939e-05
-8.44261e-05
-9.40878e-05
-0.000103776
-0.000113491
-0.000123241
-0.000133032
-0.00014287
-0.000152758
-0.000162702
-0.000172714
-0.000182799
-0.000192962
-0.000203214
-0.00021357
-0.000224052
-0.000234676
-0.000245462
-0.000256431
-0.000267616
-0.000279044
-0.000290754
-0.000302791
-0.000315212
-0.000328076
-0.000341455
-0.000355436
-0.000370121
-0.000385636
-0.000402125
-0.000419754
-0.000438726
-0.000459273
-0.000481687
-0.000506326
-0.000533516
-0.000563503
-0.000596821
-0.000635503
-0.000680858
-0.000728089
-0.000774547
0.000171462
0.00016313
0.000154698
0.000146176
0.000137557
0.000128839
0.000120028
0.000111133
0.000102157
9.31054e-05
8.39816e-05
7.4792e-05
6.55429e-05
5.62392e-05
4.68855e-05
3.74868e-05
2.80464e-05
1.85683e-05
9.0564e-06
-4.84937e-07
-1.00526e-05
-1.96441e-05
-2.92556e-05
-3.88839e-05
-4.85275e-05
-5.81867e-05
-6.78614e-05
-7.75494e-05
-8.72498e-05
-9.69627e-05
-0.000106686
-0.000116425
-0.000126187
-0.000135974
-0.000145789
-0.000155636
-0.000165518
-0.000175442
-0.000185417
-0.000195452
-0.000205558
-0.000215749
-0.000226036
-0.000236437
-0.00024697
-0.000257658
-0.000268524
-0.000279598
-0.000290913
-0.000302511
-0.000314441
-0.00032676
-0.000339536
-0.000352854
-0.000366814
-0.000381534
-0.000397157
-0.000413852
-0.000431826
-0.000451328
-0.000472652
-0.00049612
-0.000522046
-0.000550721
-0.000583197
-0.000621865
-0.000665707
-0.000709603
-0.000752761
0.000174615
0.00016595
0.000157189
0.000148344
0.000139404
0.000130368
0.000121246
0.000112045
0.000102769
9.34249e-05
8.40172e-05
7.45532e-05
6.50392e-05
5.54801e-05
4.58804e-05
3.62449e-05
2.65784e-05
1.68861e-05
7.1725e-06
-2.55818e-06
-1.23023e-05
-2.2056e-05
-3.18162e-05
-4.15803e-05
-5.13466e-05
-6.11139e-05
-7.08806e-05
-8.06457e-05
-9.04092e-05
-0.000100169
-0.000109924
-0.000119678
-0.000129436
-0.000139199
-0.000148971
-0.000158755
-0.000168555
-0.000178379
-0.000188233
-0.000198127
-0.000208068
-0.000218067
-0.000228135
-0.000238287
-0.00024854
-0.000258911
-0.000269423
-0.0002801
-0.000290974
-0.00030208
-0.000313463
-0.000325175
-0.000337279
-0.000349853
-0.000362992
-0.000376809
-0.000391446
-0.000407073
-0.000423901
-0.000442186
-0.000462213
-0.000484292
-0.000508725
-0.000536
-0.000567932
-0.000606151
-0.000647282
-0.00068794
-0.00072885
0.000177525
0.00016851
0.000159403
0.000150215
0.000140937
0.000131569
0.00012212
0.000112599
0.000103012
9.33649e-05
8.36641e-05
7.39165e-05
6.41282e-05
5.43048e-05
4.44514e-05
3.45738e-05
2.4678e-05
1.47696e-05
4.85367e-06
-5.06558e-06
-1.49842e-05
-2.48983e-05
-3.48046e-05
-4.47002e-05
-5.45824e-05
-6.44494e-05
-7.42998e-05
-8.41329e-05
-9.3948e-05
-0.000103741
-0.000113512
-0.000123264
-0.000133001
-0.000142727
-0.000152441
-0.000162148
-0.000171853
-0.000181559
-0.000191274
-0.000201005
-0.000210757
-0.00022054
-0.000230365
-0.000240242
-0.000250185
-0.00026021
-0.000270334
-0.000280579
-0.00029097
-0.000301537
-0.000312319
-0.000323361
-0.00033472
-0.000346466
-0.000358686
-0.00037149
-0.000385013
-0.000399427
-0.000414945
-0.000431819
-0.000450323
-0.000470762
-0.00049347
-0.000519429
-0.000550938
-0.00058759
-0.0006254
-0.000663427
-0.000702771
0.000180128
0.000170744
0.000161273
0.000151725
0.000142093
0.000132377
0.000122587
0.000112733
0.000102823
9.28618e-05
8.28565e-05
7.28148e-05
6.27435e-05
5.26488e-05
4.25369e-05
3.24142e-05
2.22873e-05
1.21621e-05
2.04405e-06
-8.06237e-06
-1.81529e-05
-2.82235e-05
-3.82703e-05
-4.829e-05
-5.82798e-05
-6.82375e-05
-7.81617e-05
-8.80517e-05
-9.79055e-05
-0.000107719
-0.000117492
-0.000127229
-0.000136934
-0.000146606
-0.000156248
-0.000165862
-0.000175452
-0.000185023
-0.000194579
-0.000204125
-0.000213668
-0.000223215
-0.000232773
-0.00024235
-0.000251958
-0.000261607
-0.000271311
-0.000281087
-0.000290954
-0.000300936
-0.000311063
-0.000321373
-0.000331915
-0.000342747
-0.00035395
-0.000365624
-0.000377898
-0.000390943
-0.000404966
-0.000420204
-0.000436924
-0.000455439
-0.000476262
-0.000501108
-0.000531717
-0.000565607
-0.000600319
-0.000636484
-0.000675095
0.000182365
0.000172592
0.000162737
0.000152813
0.00014281
0.000132731
0.000122586
0.000112385
0.000102138
9.18504e-05
8.15297e-05
7.11846e-05
6.08227e-05
5.0451e-05
4.00762e-05
2.97052e-05
1.93452e-05
9.00263e-06
-1.31678e-06
-1.16081e-05
-2.18668e-05
-3.20886e-05
-4.22694e-05
-5.24055e-05
-6.24939e-05
-7.25325e-05
-8.25195e-05
-9.24542e-05
-0.000102333
-0.000112152
-0.000121914
-0.000131621
-0.000141276
-0.000150879
-0.000160431
-0.000169934
-0.000179392
-0.000188808
-0.000198186
-0.00020753
-0.000216844
-0.000226133
-0.000235401
-0.000244656
-0.000253903
-0.000263149
-0.000272404
-0.000281678
-0.000290984
-0.000300338
-0.000309761
-0.000319282
-0.000328936
-0.000338773
-0.000348859
-0.000359284
-0.00037017
-0.000381676
-0.000393991
-0.000407332
-0.000421971
-0.00043827
-0.00045719
-0.000480958
-0.000509561
-0.00054019
-0.000572471
-0.000607586
-0.000646709
0.000184165
0.000173984
0.000163727
0.000153407
0.000143017
0.000132557
0.00012204
0.000111479
0.000100882
9.02556e-05
7.96092e-05
6.89518e-05
5.82921e-05
4.76376e-05
3.69956e-05
2.63736e-05
1.57793e-05
5.21979e-06
-5.29888e-06
-1.57714e-05
-2.61931e-05
-3.65594e-05
-4.68659e-05
-5.7109e-05
-6.72855e-05
-7.73931e-05
-8.74301e-05
-9.7395e-05
-0.000107283
-0.000117093
-0.000126827
-0.000136489
-0.000146077
-0.000155593
-0.000165037
-0.000174412
-0.000183719
-0.000192963
-0.000202144
-0.000211266
-0.000220331
-0.000229342
-0.000238301
-0.000247211
-0.000256075
-0.000264896
-0.000273676
-0.00028242
-0.000291133
-0.000299822
-0.000308498
-0.000317176
-0.000325879
-0.000334642
-0.000343516
-0.000352577
-0.000361928
-0.000371706
-0.000382068
-0.000393217
-0.000405448
-0.000419294
-0.000436414
-0.000458582
-0.00048416
-0.00051191
-0.000542467
-0.000577165
-0.000616779
0.000185451
0.000174838
0.000164158
0.000153424
0.000142626
0.000131768
0.000120864
0.000109927
9.89663e-05
8.79899e-05
7.70076e-05
6.60296e-05
5.50653e-05
4.41229e-05
3.32104e-05
2.23359e-05
1.15076e-05
7.33185e-07
-9.98098e-06
-2.06293e-05
-3.12069e-05
-4.1709e-05
-5.21313e-05
-6.247e-05
-7.2722e-05
-8.28847e-05
-9.29568e-05
-0.000102936
-0.000112817
-0.000122601
-0.00013229
-0.000141887
-0.00015139
-0.0001608
-0.000170118
-0.000179345
-0.000188484
-0.000197535
-0.000206501
-0.000215382
-0.00022418
-0.000232895
-0.000241526
-0.000250073
-0.000258536
-0.000266911
-0.000275196
-0.000283388
-0.000291484
-0.00029948
-0.000307374
-0.000315167
-0.000322866
-0.000330488
-0.000338065
-0.000345647
-0.00035331
-0.000361146
-0.000369281
-0.000377919
-0.000387406
-0.000398712
-0.000413986
-0.000433587
-0.000456012
-0.000481648
-0.000511157
-0.000546153
-0.000587038
0.00018613
0.000175061
0.000163936
0.000152765
0.00014154
0.000130266
0.000118958
0.00010763
9.62918e-05
8.49537e-05
7.36257e-05
6.23191e-05
5.10442e-05
3.981e-05
2.86251e-05
1.74981e-05
6.43786e-06
-4.5476e-06
-1.54514e-05
-2.62679e-05
-3.69919e-05
-4.76189e-05
-5.81444e-05
-6.85647e-05
-7.88768e-05
-8.90783e-05
-9.9168e-05
-0.000109142
-0.000118998
-0.000128737
-0.000138362
-0.000147874
-0.000157272
-0.000166556
-0.000175728
-0.000184788
-0.000193738
-0.000202579
-0.000211311
-0.000219933
-0.000228446
-0.000236848
-0.000245136
-0.000253306
-0.000261352
-0.000269268
-0.000277045
-0.000284672
-0.000292135
-0.00029942
-0.000306511
-0.000313392
-0.00032005
-0.000326481
-0.000332687
-0.000338682
-0.000344491
-0.000350157
-0.000355778
-0.000361572
-0.000368063
-0.000376896
-0.000389833
-0.000406267
-0.000426191
-0.000450351
-0.000479563
-0.000515645
-0.000557578
0.000186095
0.000174546
0.000162951
0.000151321
0.000139648
0.000127938
0.000116208
0.000104473
9.27442e-05
8.10325e-05
6.93493e-05
5.77069e-05
4.61163e-05
3.45875e-05
2.31295e-05
1.17517e-05
4.63374e-07
-1.0727e-05
-2.18124e-05
-3.27868e-05
-4.36452e-05
-5.43832e-05
-6.49965e-05
-7.54817e-05
-8.58358e-05
-9.6057e-05
-0.000106144
-0.000116092
-0.0001259
-0.000135573
-0.000145112
-0.000154516
-0.000163787
-0.000172923
-0.000181926
-0.000190798
-0.000199539
-0.00020815
-0.000216629
-0.000224976
-0.000233188
-0.000241262
-0.000249194
-0.000256975
-0.000264596
-0.000272046
-0.00027931
-0.000286367
-0.000293195
-0.000299767
-0.000306051
-0.000312014
-0.000317619
-0.000322829
-0.000327606
-0.000331909
-0.000335701
-0.000338976
-0.000341815
-0.000344482
-0.000347965
-0.000354308
-0.000364287
-0.00037786
-0.000395935
-0.000419003
-0.000448604
-0.000486269
-0.000530484
0.000185224
0.000173166
0.000161076
0.000148964
0.000136821
0.000124655
0.000112484
0.000100326
8.81928e-05
7.60963e-05
6.40491e-05
5.20645e-05
4.01546e-05
2.83301e-05
1.66007e-05
4.97618e-06
-6.53358e-06
-1.79197e-05
-2.9175e-05
-4.02935e-05
-5.12703e-05
-6.21013e-05
-7.27826e-05
-8.33111e-05
-9.36845e-05
-0.000103902
-0.00011396
-0.000123857
-0.000133595
-0.000143177
-0.000152604
-0.000161877
-0.000170995
-0.00017996
-0.000188773
-0.000197435
-0.000205947
-0.000214307
-0.000222515
-0.000230569
-0.000238466
-0.000246201
-0.000253766
-0.000261152
-0.000268345
-0.00027533
-0.000282084
-0.000288581
-0.000294787
-0.000300663
-0.000306161
-0.000311226
-0.000315791
-0.000319775
-0.000323084
-0.000325614
-0.000327265
-0.000327988
-0.000327856
-0.000327348
-0.000328067
-0.000331687
-0.000338713
-0.000350066
-0.000366519
-0.000388823
-0.000419303
-0.000458104
-0.00050149
0.000183371
0.000170775
0.000158162
0.000145542
0.000132905
0.000120261
0.000107631
9.50338e-05
8.24826e-05
6.99903e-05
5.75708e-05
4.52386e-05
3.3007e-05
2.08873e-05
8.88993e-06
-2.97479e-06
-1.46967e-05
-2.62665e-05
-3.76769e-05
-4.89222e-05
-5.99979e-05
-7.09003e-05
-8.16263e-05
-9.21735e-05
-0.00010254
-0.000112726
-0.000122727
-0.000132544
-0.000142182
-0.000151643
-0.000160928
-0.000170039
-0.000178977
-0.000187743
-0.000196339
-0.000204767
-0.000213025
-0.000221114
-0.000229032
-0.000236777
-0.000244345
-0.000251729
-0.000258922
-0.00026591
-0.000272678
-0.000279206
-0.000285466
-0.000291425
-0.000297042
-0.000302263
-0.000307023
-0.000311238
-0.000314803
-0.000317588
-0.00031944
-0.000320192
-0.00031969
-0.00031785
-0.0003148
-0.000311496
-0.000309728
-0.000310639
-0.000315224
-0.000324527
-0.000339306
-0.000361254
-0.000392779
-0.000432019
-0.000473948
0.000180366
0.000167201
0.000154037
0.000140882
0.000127728
0.000114585
0.000101477
8.84242e-05
7.5442e-05
6.25443e-05
4.97462e-05
3.70636e-05
2.4511e-05
1.21004e-05
-1.5705e-07
-1.22506e-05
-2.41698e-05
-3.59051e-05
-4.74492e-05
-5.87967e-05
-6.9944e-05
-8.08879e-05
-9.16265e-05
-0.000102158
-0.000112484
-0.000122602
-0.000132511
-0.000142216
-0.00015172
-0.000161029
-0.000170142
-0.000179062
-0.000187791
-0.000196332
-0.000204686
-0.000212854
-0.000220836
-0.000228632
-0.000236241
-0.00024366
-0.000250886
-0.000257911
-0.000264726
-0.000271318
-0.00027767
-0.000283758
-0.000289552
-0.000295013
-0.000300091
-0.00030472
-0.000308813
-0.000312255
-0.000314905
-0.000316591
-0.000317112
-0.000316254
-0.000313817
-0.000309689
-0.000304254
-0.000298875
-0.000294965
-0.000293576
-0.000295822
-0.000302755
-0.000315802
-0.000337658
-0.000369787
-0.000409025
-0.000452176
0.000176002
0.000162235
0.000148488
0.00013477
0.000121071
0.000107406
9.37993e-05
8.02741e-05
6.68472e-05
5.35339e-05
4.03508e-05
2.73153e-05
1.4443e-05
1.74702e-06
-1.07612e-05
-2.30703e-05
-3.51696e-05
-4.70495e-05
-5.87032e-05
-7.01259e-05
-8.13148e-05
-9.22683e-05
-0.000102986
-0.000113467
-0.000123713
-0.000133722
-0.000143498
-0.000153047
-0.000162375
-0.000171485
-0.000180383
-0.00018907
-0.000197551
-0.000205829
-0.000213905
-0.000221781
-0.000229457
-0.000236935
-0.000244212
-0.000251286
-0.000258154
-0.000264809
-0.000271243
-0.000277442
-0.000283389
-0.00028906
-0.000294425
-0.000299439
-0.000304043
-0.000308158
-0.000311679
-0.000314477
-0.000316392
-0.000317232
-0.000316769
-0.000314751
-0.000310915
-0.000305227
-0.000298462
-0.000291853
-0.000286285
-0.000282661
-0.000282135
-0.000286405
-0.000297783
-0.000319311
-0.000350983
-0.000389356
-0.000431352
0.000170057
0.000155653
0.000141292
0.000126982
0.000112715
9.85052e-05
8.43822e-05
7.03709e-05
5.64898e-05
4.27558e-05
2.91874e-05
1.58035e-05
2.62106e-06
-1.03457e-05
-2.30847e-05
-3.55843e-05
-4.78334e-05
-5.98229e-05
-7.15461e-05
-8.29994e-05
-9.41812e-05
-0.000105092
-0.000115733
-0.000126108
-0.00013622
-0.000146071
-0.000155668
-0.000165019
-0.000174131
-0.000183007
-0.000191655
-0.000200078
-0.00020828
-0.000216266
-0.000224037
-0.000231596
-0.000238942
-0.000246077
-0.000253002
-0.000259714
-0.00026621
-0.000272486
-0.000278534
-0.000284343
-0.000289897
-0.000295176
-0.000300146
-0.000304762
-0.000308961
-0.000312664
-0.000315772
-0.000318166
-0.000319694
-0.000320167
-0.000319339
-0.000316879
-0.000312499
-0.000306484
-0.000299666
-0.000292521
-0.000285385
-0.00027918
-0.000275734
-0.000277504
-0.00028718
-0.000307147
-0.000337043
-0.000373577
-0.000413466
0.00016221
0.000147126
0.000132112
0.000117175
0.000102306
8.75236e-05
7.28594e-05
5.83414e-05
4.39903e-05
2.98249e-05
1.58653e-05
2.13252e-06
-1.13549e-05
-2.45819e-05
-3.75356e-05
-5.02042e-05
-6.25769e-05
-7.46449e-05
-8.64026e-05
-9.78479e-05
-0.000108981
-0.000119805
-0.000130323
-0.000140537
-0.000150453
-0.000160078
-0.000169424
-0.000178503
-0.000187322
-0.000195891
-0.000204219
-0.000212311
-0.000220174
-0.000227811
-0.000235225
-0.000242418
-0.000249392
-0.000256147
-0.000262686
-0.000269008
-0.000275112
-0.000280996
-0.000286654
-0.000292074
-0.000297244
-0.000302142
-0.000306742
-0.00031101
-0.000314903
-0.000318367
-0.000321333
-0.000323712
-0.000325376
-0.000326129
-0.000325636
-0.000323507
-0.000319754
-0.000314841
-0.000308758
-0.000301095
-0.000292185
-0.000283657
-0.000278045
-0.000277703
-0.000285119
-0.000302147
-0.000328774
-0.000362277
-0.000399282
0.00015222
0.000136421
0.000120725
0.000105135
8.9644e-05
7.4272e-05
5.90552e-05
4.40248e-05
2.92042e-05
1.46143e-05
2.77674e-07
-1.37826e-05
-2.7546e-05
-4.09959e-05
-5.4119e-05
-6.69029e-05
-7.9337e-05
-9.14129e-05
-0.000103126
-0.000114477
-0.00012547
-0.000136112
-0.000146415
-0.000156387
-0.000166038
-0.00017538
-0.000184427
-0.000193191
-0.000201684
-0.000209916
-0.000217899
-0.000225638
-0.00023314
-0.000240408
-0.000247444
-0.000254248
-0.000260823
-0.000267171
-0.000273295
-0.000279198
-0.000284884
-0.000290354
-0.000295607
-0.000300635
-0.000305427
-0.000309968
-0.00031425
-0.000318268
-0.00032202
-0.000325497
-0.00032867
-0.000331471
-0.000333753
-0.000335219
-0.000335509
-0.000334581
-0.000332699
-0.000329465
-0.000323807
-0.000315328
-0.000305139
-0.000295545
-0.000288985
-0.000287391
-0.000292301
-0.000305048
-0.000326727
-0.000355741
-0.000388886
0.000139446
0.000122872
0.000106432
9.01346e-05
7.39711e-05
5.79648e-05
4.21563e-05
2.65806e-05
1.12639e-05
-3.77022e-06
-1.84966e-05
-3.28897e-05
-4.69268e-05
-6.05901e-05
-7.38654e-05
-8.67406e-05
-9.92053e-05
-0.000111252
-0.000122879
-0.000134087
-0.000144882
-0.00015527
-0.000165263
-0.000174877
-0.000184131
-0.000193049
-0.000201649
-0.000209953
-0.000217978
-0.000225741
-0.000233256
-0.00024053
-0.000247571
-0.000254381
-0.000260959
-0.000267306
-0.000273421
-0.000279305
-0.00028496
-0.00029039
-0.0002956
-0.000300601
-0.000305401
-0.000310015
-0.00031445
-0.000318709
-0.000322793
-0.000326712
-0.000330499
-0.000334192
-0.000337779
-0.000341139
-0.000344031
-0.000346217
-0.000347751
-0.000348842
-0.000348929
-0.000346572
-0.000340752
-0.000331886
-0.00032178
-0.00031273
-0.000306884
-0.000305319
-0.00030788
-0.000315765
-0.000331109
-0.000354052
-0.000382197
0.000123965
0.000106591
8.93985e-05
7.2388e-05
5.55498e-05
3.89128e-05
2.25231e-05
6.42074e-06
-9.36426e-06
-2.4805e-05
-3.98728e-05
-5.45386e-05
-6.87765e-05
-8.25666e-05
-9.58934e-05
-0.000108745
-0.000121111
-0.000132987
-0.000144375
-0.000155284
-0.000165732
-0.00017574
-0.000185324
-0.000194506
-0.00020331
-0.000211763
-0.000219892
-0.000227722
-0.000235277
-0.000242578
-0.000249637
-0.000256463
-0.000263058
-0.000269422
-0.000275549
-0.000281438
-0.000287087
-0.000292499
-0.000297678
-0.00030263
-0.000307364
-0.000311891
-0.000316228
-0.000320411
-0.000324484
-0.00032849
-0.000332448
-0.000336359
-0.000340222
-0.000344036
-0.000347756
-0.000351252
-0.000354425
-0.000357425
-0.00036047
-0.000363105
-0.000363937
-0.000361607
-0.000355869
-0.000347829
-0.000339311
-0.000332388
-0.000328697
-0.000327995
-0.000329058
-0.000332593
-0.000341236
-0.000356906
-0.000378499
0.000103893
8.56157e-05
6.7547e-05
4.9714e-05
3.2106e-05
1.47511e-05
-2.2994e-06
-1.89995e-05
-3.53149e-05
-5.12149e-05
-6.6667e-05
-8.16381e-05
-9.60988e-05
-0.000110026
-0.000123402
-0.000136212
-0.000148446
-0.000160097
-0.000171166
-0.000181659
-0.000191591
-0.000200996
-0.00020991
-0.000218372
-0.000226423
-0.000234104
-0.000241457
-0.000248521
-0.000255332
-0.000261919
-0.000268298
-0.000274477
-0.000280454
-0.000286219
-0.000291757
-0.00029706
-0.000302124
-0.000306959
-0.000311589
-0.000316041
-0.000320332
-0.000324459
-0.000328401
-0.000332148
-0.000335747
-0.000339307
-0.000342947
-0.000346683
-0.000350365
-0.00035381
-0.000357027
-0.000360171
-0.000363426
-0.000366984
-0.00037068
-0.000373536
-0.000374189
-0.000371931
-0.000367165
-0.000361051
-0.000355101
-0.000351059
-0.000349825
-0.000350326
-0.000350918
-0.000351585
-0.000354673
-0.000363077
-0.000377018
8.13395e-05
6.21586e-05
4.32803e-05
2.46795e-05
6.34725e-06
-1.16747e-05
-2.93246e-05
-4.65495e-05
-6.33091e-05
-7.95674e-05
-9.52863e-05
-0.000110428
-0.000124958
-0.000138853
-0.000152097
-0.000164677
-0.000176585
-0.000187822
-0.000198398
-0.000208335
-0.000217655
-0.00022639
-0.000234588
-0.000242304
-0.000249595
-0.000256521
-0.00026314
-0.000269506
-0.000275667
-0.000281659
-0.000287501
-0.000293196
-0.00029873
-0.000304075
-0.000309195
-0.000314054
-0.000318625
-0.000322896
-0.000326888
-0.000330654
-0.000334276
-0.00033784
-0.000341386
-0.000344864
-0.000348124
-0.000351045
-0.000353716
-0.000356435
-0.000359287
-0.000361845
-0.000363945
-0.000366247
-0.000369261
-0.000372815
-0.000376245
-0.000378541
-0.000378949
-0.000377354
-0.000374158
-0.000370239
-0.000366936
-0.000365389
-0.000365954
-0.000367409
-0.000368035
-0.000367403
-0.000367068
-0.000369595
-0.000375986
4.95076e-05
2.92642e-05
9.30077e-06
-1.02914e-05
-2.95297e-05
-4.83876e-05
-6.67981e-05
-8.46975e-05
-0.000102038
-0.000118775
-0.000134862
-0.000150249
-0.000164887
-0.000178737
-0.000191773
-0.000203979
-0.000215343
-0.000225868
-0.000235568
-0.000244481
-0.000252654
-0.00026014
-0.000267007
-0.000273335
-0.000279213
-0.000284738
-0.000290003
-0.000295098
-0.000300101
-0.000305067
-0.00031003
-0.000314987
-0.000319903
-0.000324713
-0.00032933
-0.000333666
-0.000337649
-0.000341232
-0.000344406
-0.000347208
-0.000349729
-0.000352139
-0.000354673
-0.000357507
-0.000360415
-0.000362636
-0.000363523
-0.000363658
-0.000364429
-0.000365733
-0.000366883
-0.000368761
-0.000371735
-0.000374824
-0.000377432
-0.000379197
-0.000379689
-0.000378794
-0.000376899
-0.000374839
-0.000373518
-0.000373563
-0.000374964
-0.000376707
-0.000377296
-0.000376239
-0.000374346
-0.000373405
-0.000374368
1.897e-05
-2.37103e-06
-2.31991e-05
-4.36257e-05
-6.36652e-05
-8.32513e-05
-0.000102297
-0.000120732
-0.000138504
-0.000155566
-0.000171873
-0.00018738
-0.000202049
-0.000215842
-0.000228717
-0.000240624
-0.000251521
-0.000261402
-0.000270287
-0.000278222
-0.000285272
-0.000291519
-0.000297062
-0.000302025
-0.000306546
-0.000310775
-0.000314859
-0.000318929
-0.000323082
-0.000327374
-0.000331805
-0.000336319
-0.000340812
-0.000345148
-0.000349196
-0.00035287
-0.000356176
-0.000359218
-0.000362109
-0.000364807
-0.000366977
-0.000368109
-0.000368059
-0.000367658
-0.000368121
-0.000369155
-0.000368939
-0.000367128
-0.000366074
-0.00036695
-0.000368571
-0.00037025
-0.000372121
-0.000374254
-0.000376198
-0.000377401
-0.000377615
-0.0003769
-0.000375694
-0.000374672
-0.00037449
-0.000375464
-0.00037726
-0.000378967
-0.000379485
-0.000378483
-0.000376188
-0.000374087
-0.000373357
-3.33477e-05
-5.58526e-05
-7.8065e-05
-9.9732e-05
-0.000120861
-0.000141426
-0.000161341
-0.000180514
-0.000198869
-0.000216321
-0.000232766
-0.000248077
-0.000262184
-0.000275134
-0.000287003
-0.000297758
-0.000307312
-0.000315645
-0.000322794
-0.00032882
-0.000333803
-0.000337839
-0.000341045
-0.000343564
-0.00034556
-0.000347223
-0.000348762
-0.000350395
-0.000352332
-0.000354746
-0.000357737
-0.00036129
-0.00036524
-0.00036925
-0.000372839
-0.000375474
-0.000376796
-0.000376933
-0.000376598
-0.000376615
-0.000377148
-0.00037728
-0.000375859
-0.000373026
-0.000370651
-0.000370126
-0.000370529
-0.00037057
-0.000370119
-0.000369532
-0.000369507
-0.000370317
-0.000371562
-0.000372882
-0.000373879
-0.000374211
-0.000373782
-0.000372731
-0.000371516
-0.000370802
-0.000371187
-0.000372799
-0.000375107
-0.000377177
-0.00037804
-0.000377356
-0.000375435
-0.000373488
-0.000372477
-7.21051e-05
-9.59545e-05
-0.000118933
-0.000141523
-0.000163666
-0.000185175
-0.000205927
-0.000225866
-0.000244967
-0.00026325
-0.000280759
-0.000297278
-0.00031239
-0.000325853
-0.000337587
-0.000347643
-0.000356095
-0.000362944
-0.00036817
-0.000371794
-0.000373904
-0.000374658
-0.000374282
-0.000373063
-0.000371357
-0.000369573
-0.00036816
-0.000367564
-0.000368171
-0.000370233
-0.00037379
-0.000378601
-0.000384117
-0.000389503
-0.000393736
-0.000395815
-0.000394936
-0.000390822
-0.000384807
-0.000379287
-0.000376208
-0.000375857
-0.00037677
-0.000377266
-0.000376596
-0.00037479
-0.000372928
-0.000371846
-0.000371359
-0.000371088
-0.000370997
-0.000371094
-0.000371312
-0.000371511
-0.000371458
-0.000370905
-0.000369778
-0.000368263
-0.000366843
-0.000366195
-0.000366844
-0.000368722
-0.000371322
-0.000373765
-0.000375123
-0.000375115
-0.000374256
-0.000373419
-0.000373335
-0.000157973
-0.000183242
-0.000208201
-0.000232322
-0.000255555
-0.000277898
-0.000299225
-0.000319351
-0.000338081
-0.000355211
-0.000370547
-0.000384213
-0.000396477
-0.0004073
-0.000416462
-0.000423786
-0.000429185
-0.000432625
-0.000434096
-0.000433618
-0.000431275
-0.00042723
-0.000421739
-0.000415144
-0.000407873
-0.000400428
-0.000393361
-0.000387238
-0.000382576
-0.000379781
-0.000379063
-0.000380377
-0.000383377
-0.000387422
-0.000391644
-0.000395039
-0.00039683
-0.000396569
-0.000394111
-0.000390067
-0.000385337
-0.000381092
-0.000378308
-0.000376811
-0.000375665
-0.000374563
-0.000373593
-0.00037291
-0.000372464
-0.00037216
-0.00037195
-0.000371761
-0.000371513
-0.000371116
-0.00037047
-0.000369466
-0.000368021
-0.000366258
-0.000364688
-0.000364001
-0.000364516
-0.000366239
-0.000368804
-0.000371283
-0.00037298
-0.00037384
-0.000374159
-0.000374263
-0.000374486
0.000114563
0.000120757
0.000127333
0.000134259
0.000141578
0.000149379
0.000157722
0.000166432
0.000175384
0.000184766
0.000194685
0.000204991
0.000215495
0.000226872
0.000237595
0.000248747
0.000259415
0.000270827
0.000281787
0.000292448
0.000303557
0.000313355
0.000322711
0.000331115
0.000338795
0.000345704
0.000351136
0.000355483
0.000359015
0.00036104
0.000361273
0.000360474
0.000358689
0.000355918
0.000351422
0.000346008
0.000339933
0.000332796
0.000324796
0.00031659
0.000307624
0.00029828
0.000289153
0.000280184
0.000270404
0.000261258
0.000251743
0.000242718
0.000233708
0.000225042
0.000216776
0.00020879
0.000201333
0.000194211
0.000187524
0.000180834
0.000174675
0.000168814
0.00016334
0.000117299
0.000123679
0.000130498
0.000137703
0.000145343
0.000153432
0.000161987
0.000170975
0.000180373
0.000190206
0.000200445
0.000211051
0.000222017
0.000233353
0.000244863
0.000256355
0.00026798
0.000279622
0.000291176
0.000302269
0.000313337
0.000323773
0.000333491
0.000342375
0.000350325
0.000357368
0.000363247
0.000367694
0.00037125
0.000373307
0.000373576
0.000372844
0.000370965
0.000367758
0.000363223
0.000357568
0.00035108
0.000343745
0.000335496
0.0003267
0.000317537
0.000307979
0.000298322
0.000288423
0.000278492
0.000268698
0.000258967
0.000249555
0.0002403
0.000231329
0.000222737
0.000214506
0.000206596
0.000199107
0.000191919
0.000185161
0.00017882
0.000172863
0.000167262
0.000120009
0.000126617
0.000133647
0.000141122
0.000149053
0.000157451
0.000166305
0.000175609
0.000185377
0.000195609
0.000206253
0.000217263
0.000228632
0.000240325
0.000252266
0.000264404
0.000276639
0.000288812
0.000300788
0.00031245
0.000323804
0.000334699
0.00034486
0.000354155
0.000362496
0.000369788
0.000375887
0.000380614
0.000384204
0.000386261
0.000386715
0.000385974
0.000383828
0.000380341
0.000375584
0.000369699
0.000362815
0.000355111
0.000346596
0.000337487
0.000327915
0.000317904
0.000307655
0.000297284
0.000286921
0.000276677
0.000266565
0.000256686
0.00024707
0.000237756
0.000228811
0.000220224
0.000211999
0.000204153
0.000196743
0.000189764
0.000183187
0.000176998
0.000171176
0.000122543
0.00012938
0.00013666
0.000144402
0.000152619
0.000161322
0.000170509
0.000180176
0.000190325
0.000200949
0.000212021
0.000223505
0.00023537
0.000247553
0.00025998
0.00027262
0.000285344
0.000298043
0.000310554
0.00032281
0.000334687
0.000346022
0.000356626
0.000366349
0.000375091
0.000382705
0.000389056
0.000394028
0.000397714
0.000399814
0.00040035
0.000399541
0.000397202
0.000393518
0.000388507
0.000382335
0.000375095
0.000366965
0.000358037
0.000348485
0.000338414
0.000327923
0.000317202
0.000306408
0.000295589
0.000284872
0.000274309
0.000263973
0.00025393
0.000244218
0.000234878
0.000225931
0.000217396
0.00020928
0.000201596
0.000194336
0.000187487
0.000181041
0.000174994
0.00012484
0.000131922
0.000139469
0.000147496
0.000156018
0.000165047
0.000174586
0.000184636
0.000195191
0.000206239
0.00021776
0.000229725
0.000242093
0.0002548
0.00026777
0.000280935
0.000294194
0.000307444
0.00032054
0.000333378
0.000345808
0.000357642
0.000368725
0.000378903
0.000388049
0.000396016
0.000402662
0.000407859
0.000411675
0.000413838
0.000414391
0.0004135
0.000411019
0.000407137
0.000401865
0.000395367
0.000387756
0.000379189
0.000369787
0.000359721
0.000349131
0.000338154
0.000326949
0.000315653
0.000304338
0.000293116
0.000282072
0.000271276
0.00026079
0.000250659
0.000240919
0.000231597
0.000222711
0.000214268
0.000206268
0.000198711
0.000191591
0.000184898
0.000178623
0.000126879
0.000134219
0.000142046
0.000150375
0.000159222
0.000168599
0.000178512
0.000188963
0.000199946
0.000211447
0.000223445
0.00023591
0.0002488
0.000262057