/*--------------------------------*- C++ -*----------------------------------*\
| =========                 |                                                 |
| \\      /  F ield         | OpenFOAM: The Open Source CFD Toolbox           |
|  \\    /   O peration     | Version:  2312                                  |
|   \\  /    A nd           | Website:  www.openfoam.com                      |
|    \\/     M anipulation  |                                                 |
\*---------------------------------------------------------------------------*/
FoamFile
{
    version     2.0;
    format      ascii;
    arch        "LSB;label=32;scalar=64";
    class       surfaceScalarField;
    location    "100";
    object      phi;
}
// * * * * * * * * * * * * * * * * * * * * * * * * * * * * * * * * * * * * * //

dimensions      [0 3 -1 0 0 0 0];

oriented        oriented;

internalField   nonuniform List<scalar> 
116611
(
0.00110234
0.000378128
-0.0010866
-0.000393865
0.00111797
0.000372756
-0.00038839
0.00113343
0.000367006
-0.000382467
0.00114873
0.00036085
-0.000376146
0.00116376
0.000354279
-0.000369309
0.00117882
0.000347208
-0.000362268
0.00119333
0.000339725
-0.000354235
0.00120795
0.00033177
-0.000346388
0.00122225
0.000323333
-0.000337631
0.00123634
0.000314399
-0.000328491
0.00125017
0.000304934
-0.000318766
0.00126377
0.000294925
-0.000308524
0.00127702
0.000284362
-0.000297617
0.00129006
0.000273207
-0.000286243
0.00130273
0.000261474
-0.000274144
0.00131499
0.000249209
-0.000261467
0.00132706
0.000236191
-0.00024826
0.00133868
0.000222669
-0.000234288
0.00134989
0.000208323
-0.000219536
0.00136066
0.000193459
-0.000204233
0.00137119
0.000177754
-0.000188282
0.00138119
0.000161386
-0.000171388
0.00139073
0.000144246
-0.00015378
0.00139985
0.000126391
-0.000135509
0.00140838
0.000107763
-0.000116294
0.00141652
8.83076e-05
-9.64534e-05
0.00142421
6.79388e-05
-7.56245e-05
0.00143102
4.68472e-05
-5.36586e-05
0.00143775
2.48118e-05
-3.15389e-05
0.00144343
1.86364e-06
-7.54385e-06
0.00144863
-2.17961e-05
1.65918e-05
0.00145318
-4.65975e-05
4.20524e-05
0.00145706
-7.22848e-05
6.84055e-05
0.00146019
-9.88987e-05
9.57653e-05
0.00146261
-0.000126679
0.000124256
0.00146425
-0.000155322
0.000153685
0.00146533
-0.000185172
0.000184094
0.00146549
-0.000216074
0.000215918
0.00146483
-0.000248
0.000248658
0.00146325
-0.000281156
0.000282734
0.00146075
-0.000315375
0.000317872
0.00145752
-0.000350897
0.000354125
0.0014533
-0.000387588
0.000391811
0.00144796
-0.000425466
0.000430812
0.00144184
-0.000464685
0.000470796
0.00143455
-0.000505205
0.000512494
0.00142626
-0.000547105
0.0005554
0.0014167
-0.00059031
0.000599869
0.0014061
-0.000634969
0.000645572
0.00139417
-0.000681094
0.000693017
0.00138107
-0.000728742
0.000741847
0.00136674
-0.000777942
0.000792272
0.00135105
-0.000828774
0.000844464
0.001334
-0.000881304
0.000898351
0.00131568
-0.000935538
0.000953858
0.00129562
-0.000991721
0.00101178
0.00127441
-0.00104975
0.00107096
0.0012514
-0.00110983
0.00113285
0.00122692
-0.00117207
0.00119655
0.00120081
-0.00123651
0.00126261
0.00117293
-0.00130325
0.00133113
0.00114338
-0.00137277
0.00140231
0.00111078
-0.0014437
0.0014763
0.00107558
-0.0015152
0.0015504
0.00104363
-0.00159489
0.00162684
0.00101754
-0.00169628
0.00172237
0.000981094
-0.00179934
0.00183579
0.000902797
-0.00183566
0.00191396
-0.00176268
0.000781202
0.00188427
0.00108403
0.000362505
-0.00106841
0.0010995
0.000357286
0.00111482
0.000351685
0.00112998
0.000345693
0.00114499
0.000339262
0.00115978
0.000332424
0.00117436
0.000325146
0.00118873
0.000317397
0.00120288
0.000309181
0.00121682
0.000300466
0.00123051
0.000291241
0.00124393
0.0002815
0.00125708
0.000271214
0.00126993
0.000260363
0.00128243
0.00024897
0.00129468
0.000236964
0.00130651
0.000224359
0.00131805
0.000211124
0.00132913
0.000197244
0.0013399
0.000182691
0.00135021
0.000167448
0.00136008
0.00015151
0.00136948
0.000134846
0.00137843
0.000117445
0.00138691
9.92836e-05
0.0013949
8.03135e-05
0.00140229
6.05452e-05
0.00140918
3.9965e-05
0.00141546
1.85256e-05
0.00142109
-3.75889e-06
0.00142622
-2.69289e-05
0.00143066
-5.10366e-05
0.00143444
-7.60708e-05
0.0014376
-0.000102057
0.00143998
-0.000129054
0.00144169
-0.000157037
0.00144258
-0.000186064
0.00144264
-0.000216135
0.00144192
-0.000247279
0.00144032
-0.000279549
0.00143788
-0.000312943
0.00143449
-0.0003475
0.00143013
-0.000383227
0.00142482
-0.000420162
0.0014185
-0.00045836
0.00141111
-0.000497815
0.0014026
-0.000538594
0.00139299
-0.000580701
0.00138222
-0.0006242
0.00137025
-0.00066912
0.00135702
-0.000715518
0.00134251
-0.000763434
0.00132668
-0.000812936
0.00130946
-0.00086409
0.00129087
-0.000916948
0.00127075
-0.000971604
0.00124912
-0.00102811
0.00122585
-0.00108656
0.00120088
-0.0011471
0.00117428
-0.00120991
0.00114612
-0.00127509
0.00111554
-0.00134219
0.00108169
-0.00140985
0.00104699
-0.00148049
0.00101829
-0.00156619
0.000992358
-0.00167035
0.000942562
-0.00174954
0.000843429
-0.00173653
-0.00163014
0.000710891
0.00106621
0.000347051
-0.00105075
0.00108152
0.000341966
0.0010967
0.000336509
0.00111173
0.000330666
0.00112657
0.000324419
0.00114123
0.00031776
0.00115571
0.000310672
0.00116997
0.000303138
0.001184
0.000295144
0.0011978
0.000286671
0.00121134
0.000277703
0.00122461
0.000268227
0.0012376
0.000258225
0.00125028
0.000247679
0.00126267
0.00023658
0.00127473
0.000224903
0.00128646
0.000212636
0.00129782
0.000199758
0.00130882
0.000186251
0.00131941
0.000172093
0.00132959
0.000157271
0.00133934
0.000141764
0.00134863
0.00012555
0.00135746
0.000108612
0.00136582
9.09305e-05
0.00137365
7.24838e-05
0.00138094
5.32523e-05
0.00138769
3.32151e-05
0.00139386
1.23549e-05
0.00139945
-9.34957e-06
0.00140444
-3.19225e-05
0.00140879
-5.53828e-05
0.00141248
-7.97577e-05
0.00141549
-0.000105066
0.00141777
-0.000131335
0.00141932
-0.000158585
0.00142009
-0.000186837
0.00142007
-0.000216119
0.00141925
-0.000246454
0.00141756
-0.000277864
0.00141499
-0.000310372
0.0014115
-0.000344004
0.00140706
-0.000378787
0.00140164
-0.000414747
0.00139519
-0.000451915
0.0013877
-0.000490319
0.0013791
-0.000529998
0.00136938
-0.00057098
0.00135849
-0.000613305
0.00134638
-0.000657015
0.00133302
-0.000702159
0.00131837
-0.000748783
0.00130238
-0.000796941
0.00128497
-0.000846689
0.00126611
-0.000898087
0.00124571
-0.000951202
0.00122371
-0.00100611
0.00120008
-0.00106292
0.0011748
-0.00112182
0.00114784
-0.00118295
0.00111883
-0.00124609
0.00108689
-0.00131025
0.00105233
-0.00137529
0.00102015
-0.00144832
0.000995147
-0.00154118
0.000963535
-0.00163874
0.000893372
-0.00167938
0.000774375
-0.00161753
-0.00149217
0.000636405
0.00104896
0.000331764
-0.00103367
0.00106412
0.000326807
0.00107914
0.00032149
0.001094
0.0003158
0.0011087
0.000309724
0.00112321
0.000303244
0.00113754
0.000296348
0.00115166
0.000289021
0.00116555
0.000281249
0.00117921
0.000273014
0.00119261
0.0002643
0.00120575
0.000255092
0.0012186
0.000245372
0.00123115
0.000235126
0.00124339
0.000224336
0.00125531
0.000212988
0.00126688
0.000201062
0.0012781
0.000188542
0.00128894
0.000175409
0.00129939
0.000161645
0.00130943
0.000147233
0.00131904
0.000132153
0.0013282
0.000116387
0.0013369
9.99156e-05
0.00134511
8.27203e-05
0.00135281
6.47806e-05
0.00135999
4.60753e-05
0.00136662
2.6586e-05
0.00137268
6.29436e-06
0.00137815
-1.48207e-05
0.00138301
-3.67806e-05
0.00138723
-5.96067e-05
0.0013908
-8.33229e-05
0.00139368
-0.00010795
0.00139585
-0.000133509
0.00139729
-0.000160024
0.00139797
-0.000187515
0.00139786
-0.000216005
0.00139692
-0.000245515
0.00139512
-0.00027607
0.00139244
-0.000307693
0.00138885
-0.000340409
0.0013843
-0.000374242
0.00137877
-0.000409217
0.00137222
-0.000445365
0.00136462
-0.000482714
0.00135592
-0.000521297
0.00134608
-0.000561145
0.00133508
-0.000602296
0.00132285
-0.000644789
0.00130936
-0.000688665
0.00129454
-0.000733968
0.00127834
-0.000780745
0.00126071
-0.000829051
0.00124156
-0.000878941
0.00122084
-0.000930483
0.0011985
-0.000983768
0.00117451
-0.00103894
0.00114885
-0.00109615
0.00112128
-0.00115538
0.00109113
-0.00121595
0.00105791
-0.00127703
0.00102417
-0.00134154
0.000996294
-0.00142045
0.000972277
-0.00151716
0.000927001
-0.00159346
0.000832851
-0.00158523
0.000699406
-0.00148409
-0.00135751
0.000564748
0.00103235
0.000316651
-0.00101724
0.00104733
0.000311821
0.00106218
0.000306644
0.00107688
0.000301105
0.00109141
0.000295193
0.00110576
0.000288891
0.00111992
0.000282187
0.00113387
0.000275066
0.00114761
0.000267512
0.00116111
0.000259511
0.00117437
0.000251047
0.00118736
0.000242103
0.00120006
0.000232664
0.00121248
0.000222715
0.00122457
0.000212237
0.00123635
0.000201216
0.00124778
0.000189633
0.00125885
0.000177471
0.00126954
0.000164714
0.00127984
0.000151343
0.00128973
0.000137341
0.0012992
0.000122689
0.00130822
0.000107369
0.00131677
9.13625e-05
0.00132484
7.46508e-05
0.00133241
5.72145e-05
0.00133945
3.90341e-05
0.00134594
2.00909e-05
0.00135187
3.6613e-07
0.00135721
-2.01616e-05
0.00136194
-4.15129e-05
0.00136605
-6.37083e-05
0.00136949
-8.67686e-05
0.00137226
-0.000110714
0.00137431
-0.000135566
0.00137564
-0.000161346
0.0013762
-0.000188074
0.00137596
-0.000215773
0.00137491
-0.000244463
0.00137301
-0.000274167
0.00137022
-0.000304908
0.00136652
-0.000336709
0.00136187
-0.000369593
0.00135624
-0.000403587
0.00134959
-0.000438716
0.00134189
-0.000475008
0.00133309
-0.000512494
0.00132314
-0.000551203
0.00131202
-0.000591168
0.00129965
-0.000632424
0.00128599
-0.000675007
0.00127098
-0.00071896
0.00125456
-0.000764324
0.00123666
-0.00081115
0.00121722
-0.000859495
0.00119617
-0.000909434
0.00117349
-0.000961086
0.00114914
-0.00101459
0.00112298
-0.00106999
0.00109448
-0.00112688
0.00106297
-0.00118444
0.00102935
-0.00124341
0.000998667
-0.00131085
0.00097519
-0.00139697
0.000945764
-0.00148774
0.00087891
-0.00152661
0.000761587
-0.00146791
0.000621503
-0.001344
-0.00123252
0.000496512
0.00101637
0.000301693
-0.00100141
0.00103119
0.000296999
0.00104587
0.000291967
0.00106039
0.000286583
0.00107475
0.000280836
0.00108892
0.000274713
0.00110291
0.0002682
0.00111669
0.000261283
0.00113026
0.000253947
0.00114359
0.000246178
0.00115668
0.000237961
0.0011695
0.00022928
0.00118205
0.000220119
0.0011943
0.000210462
0.00120624
0.000200294
0.00121786
0.000189598
0.00122914
0.000178356
0.00124006
0.000166553
0.0012506
0.00015417
0.00126075
0.000141191
0.00127049
0.000127598
0.00127981
0.000113373
0.00128868
9.84983e-05
0.00129709
8.29555e-05
0.00130501
6.67262e-05
0.00131243
4.9792e-05
0.00131933
3.21343e-05
0.00132569
1.37342e-05
0.00133148
-5.42681e-06
0.00133669
-2.537e-05
0.00134129
-4.61144e-05
0.00134527
-6.76795e-05
0.00134858
-9.00853e-05
0.00135122
-0.000113351
0.00135315
-0.000137498
0.00135435
-0.000162546
0.00135479
-0.000188516
0.00135445
-0.000215426
0.00135328
-0.0002433
0.00135127
-0.000272157
0.00134838
-0.000302019
0.00134458
-0.000332909
0.00133984
-0.000364848
0.00133411
-0.00039786
0.00132737
-0.00043197
0.00131956
-0.000467202
0.00131065
-0.000503584
0.00130059
-0.000541141
0.00128932
-0.000579903
0.0012768
-0.000619901
0.00126296
-0.000661168
0.00124774
-0.00070374
0.00123108
-0.00074766
0.0012129
-0.000792975
0.00119316
-0.000839748
0.0011718
-0.000888076
0.00114879
-0.000938081
0.00112401
-0.000989817
0.00109707
-0.00104304
0.0010673
-0.00109711
0.00103481
-0.00115195
0.00100274
-0.00121134
0.000976982
-0.00128509
0.000954506
-0.00137449
0.000910487
-0.00144372
0.000817172
-0.00143329
0.000682305
-0.00133304
0.000544456
-0.00120615
-0.00112182
0.000433756
0.00100096
0.000286866
-0.000986129
0.00101564
0.000282317
0.00103017
0.000277438
0.00104453
0.000272218
0.00105873
0.000266644
0.00107274
0.000260704
0.00108655
0.000254386
0.00110016
0.000247675
0.00111355
0.000240559
0.0011267
0.000233023
0.00113961
0.000225053
0.00115226
0.000216633
0.00116463
0.000207748
0.0011767
0.000198383
0.00118848
0.000188522
0.00119993
0.000178149
0.00121103
0.000167247
0.00122179
0.000155799
0.00123217
0.00014379
0.00124216
0.0001312
0.00125174
0.000118015
0.0012609
0.000104215
0.00126962
8.97831e-05
0.00127787
7.4702e-05
0.00128564
5.89534e-05
0.00129292
4.25194e-05
0.00129967
2.53817e-05
0.00130588
7.52217e-06
0.00131153
-1.10778e-05
0.0013166
-3.04385e-05
0.00132106
-5.05783e-05
0.0013249
-7.15159e-05
0.00132809
-9.32704e-05
0.00133059
-0.000115861
0.0013324
-0.000139307
0.00133348
-0.000163627
0.00133381
-0.000188842
0.00133335
-0.00021497
0.00133208
-0.000242031
0.00132997
-0.000270044
0.00132698
-0.000299031
0.00132309
-0.000329012
0.00131825
-0.000360006
0.00131242
-0.000392036
0.00130557
-0.000425122
0.00129766
-0.000459287
0.00128863
-0.000494553
0.00127843
-0.000530944
0.00126701
-0.000568486
0.00125432
-0.000607205
0.00124028
-0.000647133
0.00122485
-0.000688303
0.00120794
-0.000730753
0.0011895
-0.000774536
0.00116948
-0.000819729
0.00114784
-0.000866432
0.00112446
-0.000914701
0.00109901
-0.000964373
0.00107093
-0.00101496
0.00103998
-0.00106616
0.00100793
-0.0011199
0.00097991
-0.00118332
0.000958566
-0.00126375
0.000929417
-0.00134534
0.00086158
-0.00137588
0.000742322
-0.00131404
0.000598938
-0.00118966
0.000471084
-0.0010783
-0.00102672
0.000375981
0.000986072
0.00027216
-0.000971366
0.00100063
0.00026776
0.00101503
0.000263041
0.00102925
0.00025799
0.0010433
0.000252596
0.00105716
0.000246847
0.00107081
0.00024073
0.00108426
0.000234232
0.00109748
0.000227341
0.00111046
0.000220041
0.00112319
0.000212321
0.00113566
0.000204164
0.00114785
0.000195557
0.00115975
0.000186485
0.00117134
0.000176931
0.00118261
0.00016688
0.00119354
0.000156316
0.00120412
0.000145223
0.00121432
0.000133584
0.00122414
0.000121383
0.00123355
0.000108602
0.00124254
9.52249e-05
0.00125109
8.1234e-05
0.00125918
6.6612e-05
0.00126679
5.13414e-05
0.00127391
3.54046e-05
0.00128051
1.87839e-05
0.00128657
1.46176e-06
0.00129207
-1.65809e-05
0.00129699
-3.53628e-05
0.00130132
-5.49019e-05
0.00130502
-7.52161e-05
0.00130807
-9.63235e-05
0.00131045
-0.000118243
0.00131214
-0.000140992
0.0013131
-0.000164589
0.00131331
-0.000189054
0.00131275
-0.000214403
0.00131137
-0.000240655
0.00130915
-0.000267828
0.00130606
-0.000295942
0.00130207
-0.000325013
0.00129712
-0.000355061
0.00129119
-0.000386103
0.00128422
-0.000418159
0.00127619
-0.000451248
0.00126702
-0.000485388
0.00125668
-0.000520601
0.0012451
-0.00055691
0.00123223
-0.000594337
0.00121801
-0.000632909
0.00120236
-0.000672657
0.00118523
-0.000713623
0.00116657
-0.000755868
0.00114631
-0.000799469
0.00112434
-0.000844471
0.0011004
-0.000890753
0.00107395
-0.000937929
0.00104466
-0.000985668
0.00101352
-0.00103502
0.000984373
-0.00109075
0.000961804
-0.00116075
0.00094003
-0.00124198
0.000893494
-0.00129881
0.000796322
-0.00127871
0.000657424
-0.00117514
0.000515739
-0.00104797
0.000403163
-0.000965724
-0.000945986
0.000322431
0.000971723
0.000257582
-0.000957145
0.000986152
0.000253331
0.00100042
0.000248772
0.00101452
0.000243894
0.00102843
0.000238684
0.00104215
0.00023313
0.00105566
0.000227219
0.00106895
0.00022094
0.00108201
0.000214278
0.00109483
0.000207221
0.0011074
0.000199755
0.0011197
0.000191867
0.00113171
0.00018354
0.00114343
0.000174762
0.00115485
0.000165518
0.00116594
0.00015579
0.00117669
0.000145565
0.00118708
0.000134827
0.00119711
0.000123559
0.00120675
0.000111744
0.00121598
9.93674e-05
0.00122479
8.64111e-05
0.00123317
7.28588e-05
0.00124109
5.86935e-05
0.00124853
4.3898e-05
0.00125548
2.84552e-05
0.00126192
1.2348e-05
0.00126782
-4.44065e-06
0.00127317
-2.193e-05
0.00127794
-4.01374e-05
0.00128212
-5.90799e-05
0.00128568
-7.87749e-05
0.0012886
-9.92398e-05
0.00129085
-0.000120492
0.0012924
-0.000142549
0.00129324
-0.000165428
0.00129333
-0.000189145
0.00129265
-0.000213718
0.00129116
-0.000239164
0.00128883
-0.000265498
0.00128562
-0.000292738
0.00128151
-0.0003209
0.00127645
-0.000349998
0.00127039
-0.00038005
0.00126331
-0.000411072
0.00125514
-0.000443079
0.00124584
-0.000476088
0.00123535
-0.000510118
0.00122363
-0.000545185
0.0012106
-0.00058131
0.00119621
-0.000618516
0.00118039
-0.000656834
0.00116308
-0.000696313
0.00114422
-0.000737009
0.0011237
-0.000778948
0.00110125
-0.000822024
0.00107642
-0.00086592
0.00104882
-0.000910334
0.00101906
-0.000955906
0.000989947
-0.0010059
0.000966056
-0.00106686
0.000946827
-0.00114153
0.000914896
-0.00121005
0.000840786
-0.0012247
0.000715349
-0.00115327
0.000567195
-0.00102698
0.000436261
-0.000917038
0.000341107
-0.00087057
-0.000877383
0.000272504
0.000957957
0.000243143
-0.000943518
0.000972247
0.00023904
0.000986377
0.000234642
0.00100033
0.000229936
0.00101411
0.000224911
0.00102768
0.000219554
0.00104105
0.000213852
0.0010542
0.000207794
0.00106711
0.000201366
0.00107978
0.000194555
0.00109218
0.000187348
0.00110432
0.000179731
0.00111617
0.000171689
0.00112772
0.00016321
0.00113896
0.000154277
0.00114988
0.000144876
0.00116045
0.000134993
0.00117067
0.00012461
0.00118051
0.000113713
0.00118997
0.000102286
0.00119903
9.03128e-05
0.00120766
7.77767e-05
0.00121586
6.46616e-05
0.0012236
5.09511e-05
0.00123087
3.66284e-05
0.00123765
2.1677e-05
0.00124391
6.08028e-06
0.00124965
-1.01786e-05
0.00125484
-2.71181e-05
0.00125946
-4.47546e-05
0.00126348
-6.31045e-05
0.00126689
-8.21843e-05
0.00126966
-0.000102011
0.00127177
-0.0001226
0.00127319
-0.000143968
0.00127389
-0.000166131
0.00127385
-0.000189105
0.00127304
-0.000212905
0.00127142
-0.000237546
0.00126896
-0.000263043
0.00126564
-0.00028941
0.0012614
-0.000316662
0.00125621
-0.000344813
0.00125004
-0.000373875
0.00124283
-0.000403863
0.00123454
-0.00043479
0.00122512
-0.000466668
0.00121451
-0.000499512
0.00120266
-0.000533335
0.00118951
-0.000568153
0.00117498
-0.000603991
0.00115903
-0.000640882
0.00114158
-0.000678866
0.00112252
-0.000717945
0.00110158
-0.000758012
0.00107835
-0.000798795
0.00105247
-0.000840036
0.00102433
-0.000882195
0.000996094
-0.000927669
0.000971717
-0.000981528
0.000952955
-0.0010481
0.000929522
-0.00111809
0.000875036
-0.00115556
0.000768323
-0.00111798
0.00062255
-0.0010075
0.000476801
-0.000881234
0.000362841
-0.000803078
0.000284168
-0.000791897
-0.00081649
0.000223275
0.000944828
0.000228851
-0.000930537
0.00095897
0.000224898
0.000972951
0.000220662
0.000986759
0.000216129
0.00100038
0.000211288
0.00101381
0.000206128
0.00102702
0.000200636
0.00104002
0.0001948
0.00105277
0.000188608
0.00106528
0.000182045
0.00107753
0.000175099
0.00108951
0.000167756
0.00110119
0.000160003
0.00111258
0.000151825
0.00112365
0.000143207
0.00113439
0.000134135
0.00114479
0.000124595
0.00115483
0.000114571
0.00116449
0.000104047
0.00117377
9.30082e-05
0.00118265
8.14389e-05
0.0011911
6.93231e-05
0.00119912
5.66449e-05
0.00120668
4.33883e-05
0.00121377
2.9537e-05
0.00122037
1.50752e-05
0.00122646
-1.30308e-08
0.00123203
-1.5745e-05
0.00123705
-3.21375e-05
0.0012415
-4.92061e-05
0.00124536
-6.69665e-05
0.00124861
-8.54345e-05
0.00125123
-0.000104626
0.00125318
-0.000124555
0.00125446
-0.000145238
0.00125501
-0.000166689
0.00125483
-0.000188923
0.00125388
-0.000211953
0.00125213
-0.000235794
0.00124954
-0.000260457
0.00124609
-0.000285957
0.00124173
-0.000312305
0.00123643
-0.000339512
0.00123015
-0.00036759
0.00122283
-0.00039655
0.00121444
-0.0004264
0.00120493
-0.000457151
0.00119423
-0.00048881
0.00118228
-0.000521391
0.00116904
-0.000554908
0.00115443
-0.000589386
0.00113839
-0.000624844
0.00112079
-0.000661262
0.00110137
-0.000698522
0.00107974
-0.000736382
0.00105558
-0.000774637
0.00102922
-0.000813675
0.00100242
-0.000855401
0.000978538
-0.000903783
0.000959965
-0.000962955
0.000941007
-0.00102914
0.000900865
-0.00107795
0.000813666
-0.00106836
0.000677581
-0.000981898
0.000523821
-0.000853741
0.000390629
-0.000748042
0.0002963
-0.000708748
0.000231313
-0.00072691
-0.000761439
0.000176262
0.000932392
0.000214712
-0.000918252
0.000946379
0.000210911
0.000960203
0.000206837
0.000973853
0.000202479
0.000987316
0.000197825
0.00100058
0.000192864
0.00101363
0.000187583
0.00102646
0.000181971
0.00103905
0.000176015
0.0010514
0.000169702
0.00106348
0.000163019
0.00107528
0.000155952
0.0010868
0.000148488
0.00109801
0.000140613
0.0011089
0.000132313
0.00111946
0.000123572
0.00112968
0.000114377
0.00113954
0.000104713
0.00114902
9.45634e-05
0.00115812
8.39143e-05
0.00116681
7.27499e-05
0.00117507
6.10549e-05
0.00118291
4.88135e-05
0.00119028
3.60103e-05
0.00119719
2.26296e-05
0.00120361
8.65606e-06
0.00120952
-5.92564e-06
0.00121491
-2.1133e-05
0.00121975
-3.6981e-05
0.00122403
-5.34846e-05
0.00122773
-7.06589e-05
0.00123081
-8.85186e-05
0.00123326
-0.000107078
0.00123506
-0.000126353
0.00123618
-0.000146355
0.00123659
-0.000167099
0.00123626
-0.000188599
0.00123517
-0.000210865
0.00123329
-0.000233912
0.00123058
-0.000257749
0.00122702
-0.000282388
0.00122255
-0.00030784
0.00121715
-0.000334112
0.00121077
-0.000361214
0.00120338
-0.000389152
0.00119491
-0.000417933
0.00118532
-0.000447562
0.00117456
-0.000478047
0.00116257
-0.000509398
0.00114929
-0.000541628
0.00113464
-0.000574738
0.00111848
-0.000608686
0.00110056
-0.00064334
0.00108052
-0.00067848
0.00105809
-0.000713961
0.00103363
-0.000750173
0.00100869
-0.000788734
0.000986135
-0.000832846
0.0009683
-0.000885949
0.000951869
-0.000946523
0.000921181
-0.000998453
0.00085093
-0.0010077
0.000728572
-0.000946003
0.000574025
-0.000827351
0.000425336
-0.000705051
0.000311426
-0.000634132
0.000236031
-0.000633354
0.000181142
-0.00067202
-0.000709138
0.000128841
0.000920693
0.000200726
-0.000906707
0.000934523
0.00019708
0.000948188
0.000193173
0.000961674
0.000188993
0.000974971
0.000184528
0.000988067
0.000179769
0.00100095
0.000174702
0.0010136
0.000169316
0.00102602
0.000163599
0.00103818
0.000157537
0.00105008
0.000151119
0.00106171
0.00014433
0.00107304
0.000137158
0.00108406
0.000129588
0.00109477
0.000121606
0.00110514
0.000113198
0.00111517
0.00010435
0.00112484
9.50464e-05
0.00113413
8.52727e-05
0.00114303
7.50139e-05
0.00115152
6.42549e-05
0.0011596
5.29806e-05
0.00116724
4.11758e-05
0.00117442
2.88254e-05
0.00118114
1.59142e-05
0.00118736
2.42743e-06
0.00119309
-1.16504e-05
0.00119829
-2.63355e-05
0.00120295
-4.1642e-05
0.00120705
-5.75843e-05
0.00121057
-7.41765e-05
0.00121348
-9.14327e-05
0.00121577
-0.000109367
0.00121741
-0.000127991
0.00121837
-0.000147319
0.00121864
-0.000167364
0.00121818
-0.000188136
0.00121696
-0.000209647
0.00121495
-0.000231908
0.00121213
-0.000254928
0.00120846
-0.000278717
0.0012039
-0.000303282
0.00119842
-0.000328629
0.00119197
-0.000354764
0.00118451
-0.000381692
0.00117599
-0.000409414
0.00116637
-0.000437937
0.00115559
-0.000467266
0.00114359
-0.000497404
0.0011303
-0.000528333
0.00111555
-0.000559989
0.00109909
-0.000592228
0.00108061
-0.000624858
0.00105993
-0.000657806
0.00103748
-0.000691509
0.00101473
-0.000727424
0.000994197
-0.000768198
0.000977869
-0.000816518
0.000963383
-0.000871463
0.000938653
-0.000921793
0.000881283
-0.000941084
0.000773286
-0.000899703
0.000623459
-0.000796176
0.000465192
-0.000669083
0.000332067
-0.000571927
0.000239978
-0.000542043
0.000180225
-0.000573601
0.000131997
-0.000623792
-0.000660562
8.34215e-05
0.000909767
0.000186891
-0.000895932
0.000923443
0.000183405
0.000936947
0.000179668
0.00095027
0.00017567
0.000963399
0.0001714
0.000976322
0.000166845
0.000989027
0.000161996
0.0010015
0.00015684
0.00101374
0.000151365
0.00102571
0.000145559
0.00103742
0.000139409
0.00104885
0.000132901
0.00105999
0.000126022
0.00107082
0.00011876
0.00108133
0.000111099
0.0010915
0.000103026
0.00110132
9.45255e-05
0.00111079
8.55842e-05
0.00111987
7.6187e-05
0.00112857
6.63191e-05
0.00113685
5.59658e-05
0.00114472
4.5112e-05
0.00115216
3.3743e-05
0.00115914
2.18441e-05
0.00116565
9.40044e-06
0.00117168
-3.60191e-06
0.00117721
-1.71792e-05
0.00118222
-3.13456e-05
0.00118669
-4.61148e-05
0.00119061
-6.15005e-05
0.00119395
-7.7516e-05
0.00119669
-9.41745e-05
0.00119881
-0.000111489
0.00120029
-0.000129471
0.00120111
-0.000148133
0.00120123
-0.000167485
0.00120063
-0.000187539
0.00119929
-0.000208305
0.00119717
-0.00022979
0.00119424
-0.000252004
0.00119048
-0.000274952
0.00118584
-0.000298641
0.00118029
-0.000323075
0.00117378
-0.000348257
0.00116628
-0.000374189
0.00115774
-0.000400876
0.00114812
-0.000428317
0.00113736
-0.000456504
0.00112535
-0.000485402
0.00111195
-0.000514926
0.00109689
-0.00054493
0.00107992
-0.000575264
0.00106101
-0.000605946
0.0010407
-0.000637492
0.00102046
-0.000671271
0.00100252
-0.000709485
0.000988415
-0.000754094
0.000975916
-0.000804019
0.00095498
-0.000850527
0.000906395
-0.000873209
0.000810839
-0.000845527
0.000668676
-0.00075754
0.000506569
-0.000634069
0.000358412
-0.000520926
0.000247002
-0.000460517
0.000175519
-0.00047056
0.000126959
-0.000525041
8.2337e-05
-0.00057917
-0.000612384
3.41588e-05
0.000899645
0.000173203
-0.000885957
0.000913168
0.000169881
0.000926516
0.000166321
0.000939676
0.00016251
0.000952637
0.000158438
0.000965388
0.000154095
0.000977916
0.000149468
0.000990209
0.000144547
0.00100226
0.000139319
0.00101404
0.000133772
0.00102556
0.000127894
0.00103679
0.000121671
0.00104772
0.00011509
0.00105834
0.000108138
0.00106864
0.000100801
0.0010786
9.30648e-05
0.00108821
8.49153e-05
0.00109746
7.63381e-05
0.00110633
6.73186e-05
0.0011148
5.78424e-05
0.00112287
4.78947e-05
0.00113052
3.74611e-05
0.00113774
2.65268e-05
0.00114451
1.50776e-05
0.00115081
3.09958e-06
0.00115663
-9.42186e-06
0.00116195
-2.25021e-05
0.00116676
-3.61541e-05
0.00117104
-5.03911e-05
0.00117476
-6.5226e-05
0.00117792
-8.06715e-05
0.00118048
-9.67396e-05
0.00118243
-0.000113442
0.00118375
-0.00013079
0.00118442
-0.000148794
0.00118439
-0.000167464
0.00118366
-0.00018681
0.0011822
-0.000206839
0.00117997
-0.00022756
0.00117694
-0.000248978
0.00117309
-0.000271099
0.00116838
-0.000293927
0.00116276
-0.000317464
0.00115622
-0.000341714
0.00114871
-0.000366678
0.00114018
-0.00039235
0.00113058
-0.000418711
0.00111978
-0.000445707
0.00110762
-0.00047324
0.00109387
-0.000501179
0.00107838
-0.000529438
0.00106127
-0.00055815
0.00104325
-0.000587933
0.00102585
-0.000620092
0.00101101
-0.000656423
0.000999679
-0.000698158
0.000989297
-0.000743712
0.000970767
-0.000785489
0.000927449
-0.000807208
0.000841015
-0.000786775
0.00070697
-0.000711482
0.000545245
-0.000595815
0.000387635
-0.000476458
0.000259157
-0.000392448
0.000171057
-0.000372417
0.000116447
-0.000415951
7.51132e-05
-0.000483707
3.27857e-05
-0.000536842
-0.00056541
-1.41879e-05
0.00089036
0.000159659
-0.000876816
0.000903734
0.000156507
0.000916926
0.000153128
0.000929926
0.000149511
0.00094272
0.000145643
0.000955299
0.000141516
0.00096765
0.000137118
0.00097976
0.000132437
0.000991617
0.000127461
0.00100321
0.000122179
0.00101452
0.000116578
0.00102555
0.000110645
0.00103627
0.000104367
0.00104668
9.77302e-05
0.00105676
9.0721e-05
0.0010665
8.33256e-05
0.00107589
7.55297e-05
0.0010849
6.73191e-05
0.00109354
5.86793e-05
0.00110179
4.95959e-05
0.00110963
4.00545e-05
0.00111705
3.00407e-05
0.00112404
1.95402e-05
0.00113058
8.53876e-06
0.00113665
-2.97676e-06
0.00114225
-1.50217e-05
0.00114736
-2.76092e-05
0.00115196
-4.07521e-05
0.00115603
-5.44627e-05
0.00115956
-6.87533e-05
0.00116252
-8.36356e-05
0.0011649
-9.91208e-05
0.00116668
-0.00011522
0.00116783
-0.000131942
0.00116834
-0.000149298
0.00116817
-0.000167296
0.0011673
-0.000185944
0.00116571
-0.000205248
0.00116337
-0.000225217
0.00116024
-0.000245854
0.00115631
-0.000267164
0.00115153
-0.00028915
0.00114588
-0.000311816
0.00113933
-0.000335159
0.00113182
-0.000359166
0.00112327
-0.000383802
0.00111356
-0.000409002
0.00110252
-0.00043467
0.00108999
-0.000460712
0.00107595
-0.000487138
0.00106073
-0.000514218
0.00104526
-0.000542674
0.00103105
-0.000573724
0.00101969
-0.000608733
0.00101143
-0.000648163
0.00100303
-0.000689758
0.000985666
-0.00072635
0.00094458
-0.000744402
0.000863446
-0.000726075
0.000736051
-0.00065938
0.000577114
-0.000552545
0.000415195
-0.000433896
0.000275016
-0.00033628
0.000170453
-0.000287884
0.000103504
-0.000305468
6.07438e-05
-0.00037319
2.35746e-05
-0.000446538
-1.65363e-05
-0.000496731
-0.000522768
-5.91788e-05
0.000881966
0.000146259
-0.000868567
0.000895191
0.000143283
0.000908228
0.000140091
0.000921067
0.000136672
0.000933695
0.000133015
0.000946101
0.00012911
0.000958272
0.000124946
0.000970197
0.000120512
0.000981863
0.000115796
0.000993258
0.000110785
0.00100437
0.000105467
0.00101518
9.98299e-05
0.00102569
9.386e-05
0.00103588
8.75437e-05
0.00104573
8.08676e-05
0.00105524
7.38174e-05
0.00106439
6.63792e-05
0.00107317
5.85385e-05
0.00108157
5.02811e-05
0.00108957
4.15924e-05
0.00109717
3.24582e-05
0.00110434
2.28643e-05
0.00111109
1.27968e-05
0.00111738
2.24218e-06
0.00112322
-8.81355e-06
0.00112858
-2.03849e-05
0.00113346
-3.24842e-05
0.00113783
-4.51236e-05
0.00114168
-5.83147e-05
0.001145
-7.20689e-05
0.00114776
-8.63967e-05
0.00114995
-0.000101308
0.00115154
-0.000116813
0.00115252
-0.000132921
0.00115286
-0.000149639
0.00115254
-0.000166975
0.00115153
-0.000184937
0.00114982
-0.000203531
0.00114736
-0.000222763
0.00114415
-0.000242638
0.00114014
-0.00026316
0.00113532
-0.000284328
0.00112964
-0.000306135
0.00112304
-0.000328557
0.00111542
-0.00035155
0.00110666
-0.000375044
0.00109663
-0.000398969
0.00108526
-0.000423304
0.00107273
-0.000448182
0.00105962
-0.000474023
0.00104702
-0.000501615
0.00103636
-0.000532017
0.00102871
-0.000566073
0.0010234
-0.00060342
0.00101629
-0.000641058
0.000998491
-0.000671958
0.000956683
-0.000684542
0.000876933
-0.000664652
0.000753539
-0.000602682
0.000598199
-0.000504039
0.000436104
-0.000390451
0.00029037
-0.000288162
0.000174305
-0.000220215
9.32808e-05
-0.000206861
4.28285e-05
-0.000255016
7.02239e-06
-0.000337384
-2.78479e-05
-0.000411668
-6.59297e-05
-0.000458649
-0.000481595
-0.000107102
0.000874531
0.000133005
-0.000861276
0.000887604
0.000130209
0.000900485
0.00012721
0.000913161
0.000123996
0.00092562
0.000120556
0.00093785
0.00011688
0.000949838
0.000112958
0.000961573
0.000108777
0.000973042
0.000104327
0.000984233
9.9594e-05
0.000995133
9.4567e-05
0.00100573
8.92326e-05
0.00101601
8.35776e-05
0.00102597
7.75885e-05
0.00103558
7.12515e-05
0.00104485
6.45524e-05
0.00105375
5.74769e-05
0.00106228
5.00106e-05
0.00107042
4.21391e-05
0.00107817