/*--------------------------------*- C++ -*----------------------------------*\
| =========                 |                                                 |
| \\      /  F ield         | OpenFOAM: The Open Source CFD Toolbox           |
|  \\    /   O peration     | Version:  2312                                  |
|   \\  /    A nd           | Website:  www.openfoam.com                      |
|    \\/     M anipulation  |                                                 |
\*---------------------------------------------------------------------------*/
FoamFile
{
    version     2.0;
    format      ascii;
    arch        "LSB;label=32;scalar=64";
    class       volVectorField;
    location    "100";
    object      U;
}
// * * * * * * * * * * * * * * * * * * * * * * * * * * * * * * * * * * * * * //

dimensions      [0 1 -1 0 0 0 0];

internalField   nonuniform List<vector> 
76025
(
(0.0360286 -0.00841737 0)
(0.0362043 -0.0085177 5.91476e-22)
(0.036384 -0.00861617 0)
(0.0365664 -0.00871249 0)
(0.036747 -0.00880684 -9.81038e-22)
(0.0369343 -0.0088929 -1.78223e-21)
(0.0371203 -0.00898217 3.0116e-21)
(0.0373099 -0.00906359 -1.25701e-21)
(0.0375023 -0.00914594 -3.7098e-22)
(0.0376973 -0.00922582 3.39746e-22)
(0.0378931 -0.00930235 -5.32302e-24)
(0.0380919 -0.0093739 7.64371e-22)
(0.0382929 -0.00944537 -1.04013e-21)
(0.0384955 -0.00951066 0)
(0.0387023 -0.0095707 1.82337e-22)
(0.0389053 -0.00963561 0)
(0.0391126 -0.00968851 0)
(0.0393207 -0.00974668 0)
(0.0395313 -0.00979588 5.74189e-23)
(0.0397387 -0.00984993 -2.14727e-23)
(0.0399495 -0.00989483 1.16527e-23)
(0.0401648 -0.00993889 1.62184e-22)
(0.0403804 -0.00997902 -1.20941e-22)
(0.0405967 -0.0100162 -3.72911e-22)
(0.0408129 -0.0100533 -6.88913e-23)
(0.0410277 -0.010096 -2.56619e-22)
(0.0412505 -0.0101225 6.65167e-22)
(0.0414707 -0.0101556 -7.38073e-22)
(0.0416927 -0.0101837 2.93528e-22)
(0.0419205 -0.0101982 -3.32283e-22)
(0.0421428 -0.0102242 -3.685e-22)
(0.0423644 -0.0102523 8.39454e-22)
(0.0425902 -0.0102669 -1.27057e-21)
(0.0428141 -0.0102997 -2.63973e-22)
(0.0430399 -0.0103188 1.21356e-21)
(0.0432651 -0.0103481 1.88017e-23)
(0.0434938 -0.010376 -2.66345e-22)
(0.0437284 -0.0103899 1.41236e-22)
(0.0439627 -0.0104163 1.70371e-24)
(0.0441974 -0.010438 -2.32265e-22)
(0.0444319 -0.0104699 1.53851e-22)
(0.0446701 -0.0105048 -8.15028e-23)
(0.0449152 -0.0105223 1.67947e-22)
(0.045161 -0.0105634 -3.49134e-22)
(0.0454096 -0.0105969 -3.69049e-22)
(0.0456641 -0.0106445 7.31242e-22)
(0.0459224 -0.0106813 7.81144e-22)
(0.0461853 -0.0107354 -2.35958e-21)
(0.0464524 -0.0107954 1.61272e-21)
(0.0467261 -0.0108662 3.42809e-23)
(0.0470068 -0.0109458 -4.24012e-21)
(0.0472961 -0.0110308 -1.74696e-21)
(0.0475955 -0.0111245 1.79254e-21)
(0.0479055 -0.0112332 0)
(0.0482307 -0.0113521 -1.89436e-21)
(0.0485709 -0.0114995 -1.94069e-21)
(0.0489266 -0.0116519 4.19759e-23)
(0.0493055 -0.0118272 -2.01405e-21)
(0.0497046 -0.0120241 2.17209e-21)
(0.0501264 -0.0122236 -6.51878e-21)
(0.0505785 -0.0124561 -4.48966e-21)
(0.0510849 -0.0127417 5.17391e-23)
(0.0516075 -0.0130262 0)
(0.0520836 -0.0133128 1.26505e-20)
(0.0526437 -0.0136566 -5.30101e-21)
(0.0537873 -0.0142295 2.63324e-21)
(0.0553023 -0.0147973 -5.6427e-21)
(0.0554557 -0.0148668 5.82031e-21)
(0.0523435 -0.0141157 1.21976e-20)
(0.0358527 -0.00872633 6.52539e-22)
(0.0360367 -0.00882962 1.78639e-21)
(0.036223 -0.00892975 -2.37838e-21)
(0.0364119 -0.00902643 0)
(0.0366017 -0.00912152 2.50287e-21)
(0.0367963 -0.00921143 -1.22233e-22)
(0.0369912 -0.00929937 -1.85406e-21)
(0.0371877 -0.00938339 0)
(0.0373867 -0.00946438 -6.03105e-24)
(0.0375878 -0.00954265 -3.47937e-22)
(0.0377913 -0.00961806 3.15917e-22)
(0.037997 -0.00968995 -2.86537e-24)
(0.0382037 -0.0097592 0)
(0.0384121 -0.00982532 0)
(0.0386229 -0.0098862 3.09313e-22)
(0.0388335 -0.00994667 -8.37338e-22)
(0.0390474 -0.0100016 -1.20402e-22)
(0.0392612 -0.0100557 2.28896e-22)
(0.039477 -0.0101051 -1.4247e-22)
(0.0396927 -0.0101531 2.19567e-23)
(0.0399106 -0.0101972 5.08589e-23)
(0.0401289 -0.010239 -6.30295e-23)
(0.0403476 -0.0102783 2.0362e-22)
(0.0405668 -0.0103147 -3.63102e-22)
(0.0407872 -0.0103487 2.77471e-22)
(0.0410091 -0.0103809 6.16203e-22)
(0.0412323 -0.0104097 -4.28943e-22)
(0.0414545 -0.010438 0)
(0.0416779 -0.0104632 0)
(0.0419006 -0.0104883 -3.5901e-22)
(0.0421241 -0.0105124 0)
(0.04235 -0.0105348 -4.20805e-22)
(0.0425767 -0.0105558 4.63496e-22)
(0.0428047 -0.0105764 -6.94082e-22)
(0.0430339 -0.0105961 4.65316e-24)
(0.0432641 -0.0106151 -2.61499e-22)
(0.043496 -0.0106331 0)
(0.0437277 -0.0106533 -5.87475e-22)
(0.0439599 -0.0106758 4.53275e-22)
(0.0441939 -0.0107002 -3.86937e-22)
(0.0444301 -0.0107258 2.41641e-22)
(0.0446686 -0.010752 -2.81048e-24)
(0.0449082 -0.0107828 9.43516e-23)
(0.04515 -0.0108182 -8.75412e-23)
(0.0453953 -0.0108561 7.48947e-22)
(0.0456439 -0.0108989 -3.81588e-22)
(0.0458953 -0.0109484 -4.01483e-22)
(0.0461506 -0.011005 8.02152e-22)
(0.0464111 -0.0110673 2.49261e-21)
(0.0466776 -0.0111374 1.69237e-23)
(0.0469503 -0.0112163 2.60573e-21)
(0.0472305 -0.0113061 -9.10022e-22)
(0.04752 -0.0114093 -2.80148e-21)
(0.0478203 -0.0115267 1.83783e-21)
(0.048133 -0.0116583 0)
(0.0484605 -0.0118071 5.97288e-21)
(0.0488027 -0.0119729 8.74661e-23)
(0.0491634 -0.0121608 -2.04454e-21)
(0.0495441 -0.0123711 -2.13936e-21)
(0.0499505 -0.0126096 0)
(0.0503945 -0.0128763 2.25537e-21)
(0.0508683 -0.0131607 7.06631e-21)
(0.0513239 -0.0134546 0)
(0.0517527 -0.0137779 -5.13255e-21)
(0.0524674 -0.0142557 2.64024e-21)
(0.0538714 -0.014915 -5.45636e-21)
(0.0550843 -0.0153582 2.73743e-21)
(0.0538532 -0.0150082 -6.01987e-21)
(0.0494431 -0.0139838 -6.33679e-21)
(0.0356709 -0.00905219 -3.30269e-21)
(0.035862 -0.00915687 1.97775e-21)
(0.0360555 -0.00925838 -6.11541e-22)
(0.0362517 -0.00935643 2.21725e-21)
(0.0364503 -0.00945135 -2.74555e-21)
(0.0366511 -0.00954296 -1.93775e-21)
(0.0368543 -0.00963111 2.39859e-21)
(0.0370596 -0.0097158 0)
(0.037267 -0.00979702 -5.39838e-24)
(0.037476 -0.00987489 0)
(0.0376866 -0.00994942 -3.2977e-22)
(0.0378988 -0.0100206 2.92595e-22)
(0.0381123 -0.0100884 1.23154e-21)
(0.038327 -0.010153 -9.70195e-22)
(0.0385431 -0.010214 1.91072e-22)
(0.0387608 -0.0102717 4.3597e-22)
(0.0389799 -0.0103261 -1.56166e-22)
(0.0392001 -0.0103772 -8.84479e-23)
(0.0394212 -0.0104255 -1.18762e-22)
(0.0396433 -0.0104704 6.90919e-23)
(0.039866 -0.0105126 -2.2095e-23)
(0.0400892 -0.0105519 1.46555e-22)
(0.0403128 -0.0105886 -5.1608e-23)
(0.0405371 -0.0106225 -1.33234e-22)
(0.0407622 -0.0106538 0)
(0.0409878 -0.0106828 2.10632e-22)
(0.0412132 -0.0107101 2.78753e-22)
(0.0414388 -0.0107353 -2.42616e-22)
(0.0416648 -0.0107586 0)
(0.0418912 -0.0107802 7.36963e-22)
(0.0421186 -0.0107997 -4.05464e-22)
(0.0423467 -0.010818 -1.05566e-23)
(0.042575 -0.0108357 0)
(0.0428037 -0.0108528 2.42023e-22)
(0.0430328 -0.0108701 -7.91139e-22)
(0.0432622 -0.0108876 5.25559e-22)
(0.043492 -0.010906 0)
(0.0437224 -0.0109256 4.54026e-22)
(0.043954 -0.0109459 -4.57043e-22)
(0.0441868 -0.0109677 -7.99457e-23)
(0.0444206 -0.0109913 0)
(0.0446555 -0.0110178 -1.72479e-22)
(0.0448917 -0.0110477 -9.11527e-23)
(0.04513 -0.0110807 9.31291e-23)
(0.0453704 -0.011118 -5.61291e-22)
(0.0456132 -0.0111608 -3.89798e-22)
(0.0458588 -0.0112097 7.9674e-22)
(0.0461077 -0.0112651 -8.37189e-22)
(0.0463608 -0.0113284 8.42483e-22)
(0.0466188 -0.0114011 -8.45128e-22)
(0.0468826 -0.0114846 -8.84218e-22)
(0.0471535 -0.0115799 1.81066e-21)
(0.0474325 -0.0116882 0)
(0.0477209 -0.0118111 1.89965e-21)
(0.0480198 -0.0119502 -4.67126e-23)
(0.048331 -0.0121081 -2.04217e-21)
(0.0486557 -0.0122863 -2.10096e-21)
(0.0489968 -0.0124871 4.23e-21)
(0.0493588 -0.0127137 5.74287e-23)
(0.0497486 -0.012969 2.22369e-21)
(0.0501675 -0.0132522 -4.58442e-21)
(0.0505907 -0.0135541 -2.28838e-21)
(0.0509723 -0.0138664 1.25197e-22)
(0.051433 -0.0142655 -2.50608e-21)
(0.0524285 -0.014882 -2.6182e-21)
(0.0539488 -0.0155536 -8.04673e-21)
(0.0542833 -0.0157005 0)
(0.0514742 -0.0149572 -3.13613e-21)
(0.0461103 -0.0138408 3.13639e-21)
(0.0354852 -0.00939482 0)
(0.0356836 -0.00950057 6.61862e-22)
(0.0358849 -0.00960298 3.08257e-21)
(0.0360888 -0.00970183 -2.44302e-21)
(0.0362953 -0.00979715 -1.60759e-21)
(0.036504 -0.00988901 2.67246e-21)
(0.0367151 -0.00997723 -4.79762e-22)
(0.0369283 -0.0100618 4.49484e-22)
(0.0371435 -0.0101428 4.08038e-22)
(0.0373604 -0.0102202 1.42717e-21)
(0.0375788 -0.0102939 -1.42543e-21)
(0.0377985 -0.0103641 -1.13761e-21)
(0.0380196 -0.0104305 3.73366e-22)
(0.0382418 -0.0104934 9.2025e-22)
(0.0384651 -0.0105526 -6.16751e-22)
(0.0386895 -0.0106082 1.56133e-22)
(0.0389148 -0.0106605 -1.19437e-22)
(0.0391409 -0.0107093 -8.25979e-23)
(0.0393677 -0.0107549 1.11252e-22)
(0.0395952 -0.0107973 -5.22741e-23)
(0.0398231 -0.0108367 2.25322e-23)
(0.0400514 -0.010873 0)
(0.0402801 -0.0109064 2.48343e-22)
(0.0405091 -0.0109371 -1.05603e-22)
(0.0407382 -0.0109652 -3.96708e-22)
(0.0409674 -0.010991 -5.17019e-22)
(0.0411966 -0.0110147 1.00226e-21)
(0.0414258 -0.0110361 -6.05156e-22)
(0.0416551 -0.0110556 0)
(0.0418844 -0.0110734 -7.67116e-22)
(0.0421136 -0.0110899 -2.5143e-23)
(0.0423427 -0.0111055 8.68345e-22)
(0.0425718 -0.0111205 -4.95677e-22)
(0.042801 -0.0111351 1.26703e-21)
(0.0430302 -0.0111496 -2.45341e-22)
(0.0432596 -0.0111643 0)
(0.0434892 -0.0111794 0)
(0.0437191 -0.0111954 1.54445e-22)
(0.0439492 -0.0112126 1.58168e-22)
(0.0441798 -0.0112317 8.32446e-23)
(0.0444107 -0.0112532 -2.69148e-24)
(0.0446424 -0.0112776 8.79593e-23)
(0.044875 -0.0113054 0)
(0.0451088 -0.0113371 -1.60177e-24)
(0.045344 -0.0113738 0)
(0.0455811 -0.0114162 4.03356e-22)
(0.0458204 -0.011465 1.69697e-23)
(0.0460625 -0.0115214 -1.24744e-21)
(0.046308 -0.0115864 0)
(0.0465577 -0.0116611 -8.95765e-22)
(0.0468122 -0.0117469 8.82138e-22)
(0.0470723 -0.0118451 -1.84399e-21)
(0.047339 -0.0119574 0)
(0.0476133 -0.0120856 -5.83223e-21)
(0.0478962 -0.0122317 -4.41423e-23)
(0.0481892 -0.0123975 1.98588e-21)
(0.0484942 -0.0125853 2.0398e-21)
(0.0488149 -0.0127985 0)
(0.0491574 -0.013041 0)
(0.0495253 -0.0133149 -2.27474e-21)
(0.0499053 -0.0136139 4.69448e-21)
(0.0502561 -0.0139234 4.85832e-21)
(0.0505926 -0.0142711 0)
(0.0512185 -0.014789 -5.10069e-21)
(0.0525325 -0.0155207 0)
(0.0537718 -0.0160627 8.33929e-21)
(0.0527196 -0.0157942 -2.80141e-21)
(0.0483774 -0.0147133 -3.20503e-21)
(0.0425811 -0.0136002 -3.31514e-21)
(0.0352993 -0.00975422 0)
(0.0355052 -0.00986094 0)
(0.0357142 -0.00996403 6.62292e-22)
(0.0359258 -0.0100633 -2.39756e-21)
(0.03614 -0.0101588 2.96613e-21)
(0.0363566 -0.0102505 -5.35209e-22)
(0.0365756 -0.0103384 0)
(0.0367966 -0.0104225 -4.59075e-22)
(0.0370195 -0.0105027 0)
(0.0372442 -0.010579 -7.33186e-22)
(0.0374705 -0.0106515 7.3142e-23)
(0.0376981 -0.01072 6.55241e-22)
(0.0379268 -0.0107847 0)
(0.0381567 -0.0108456 -4.29049e-22)
(0.0383874 -0.0109026 1.17207e-21)
(0.0386188 -0.010956 -6.3482e-22)
(0.0388508 -0.0110056 6.00866e-22)
(0.0390834 -0.0110517 -1.17409e-22)
(0.0393163 -0.0110944 3.96313e-23)
(0.0395495 -0.0111336 -8.44807e-24)
(0.039783 -0.0111697 6.76211e-23)
(0.0400165 -0.0112025 -1.84029e-22)
(0.04025 -0.0112325 -2.25339e-22)
(0.0404834 -0.0112596 0)
(0.0407167 -0.0112841 4.25394e-22)
(0.0409497 -0.0113061 3.09083e-22)
(0.0411824 -0.0113258 -7.83427e-22)
(0.0414147 -0.0113435 3.13932e-22)
(0.0416466 -0.0113593 -7.69383e-22)
(0.0418781 -0.0113736 1.15218e-21)
(0.0421092 -0.0113865 -4.39386e-22)
(0.0423399 -0.0113985 2.35414e-22)
(0.0425701 -0.0114097 0)
(0.0428001 -0.0114205 -2.58884e-22)
(0.0430296 -0.0114312 -2.73093e-22)
(0.0432587 -0.0114422 0)
(0.0434875 -0.0114539 3.05821e-22)
(0.043716 -0.0114666 -4.81043e-22)
(0.0439443 -0.011481 3.19088e-22)
(0.0441724 -0.0114974 -1.70039e-22)
(0.0444006 -0.0115162 -2.8012e-24)
(0.0446289 -0.0115381 -1.37735e-22)
(0.0448576 -0.0115637 4.56937e-23)
(0.0450869 -0.0115936 1.91636e-22)
(0.0453171 -0.0116287 -6.90155e-24)
(0.0455485 -0.0116697 1.20974e-21)
(0.0457814 -0.0117177 0)
(0.0460164 -0.0117736 8.51901e-22)
(0.0462538 -0.0118385 1.62471e-23)
(0.0464941 -0.0119138 -8.77329e-22)
(0.0467379 -0.0120009 0)
(0.0469857 -0.0121012 -9.53363e-22)
(0.0472383 -0.0122165 9.3963e-22)
(0.0474964 -0.0123486 1.96405e-21)
(0.0477612 -0.0124997 0)
(0.0480342 -0.0126721 -4.15254e-21)
(0.0483182 -0.0128689 4.20619e-21)
(0.0486182 -0.0130943 -4.31359e-21)
(0.0489386 -0.0133513 -2.47765e-23)
(0.0492723 -0.0136378 0)
(0.0495889 -0.0139419 -2.39927e-21)
(0.0498661 -0.0142648 2.45732e-21)
(0.0502534 -0.0146913 2.50193e-21)
(0.0511848 -0.0153573 5.20589e-21)
(0.0526496 -0.016113 -7.91384e-21)
(0.0530214 -0.0163464 5.50651e-21)
(0.0502461 -0.0156011 -2.85444e-21)
(0.0447325 -0.0143207 3.01091e-21)
(0.0390787 -0.0133669 1.02147e-20)
(0.0351121 -0.0101319 -2.98524e-21)
(0.0353266 -0.0102396 1.5047e-22)
(0.0355438 -0.0103432 2.81479e-21)
(0.0357635 -0.0104427 0)
(0.0359858 -0.0105381 -5.94656e-22)
(0.0362105 -0.0106295 0)
(0.0364374 -0.0107167 9.94142e-22)
(0.0366664 -0.0107998 -7.72447e-23)
(0.0368972 -0.0108787 -1.34438e-21)
(0.0371297 -0.0109535 3.94647e-22)
(0.0373637 -0.0110242 3.54371e-22)
(0.037599 -0.0110907 3.13335e-22)
(0.0378354 -0.0111531 0)
(0.0380726 -0.0112115 0)
(0.0383106 -0.0112659 -1.97392e-22)
(0.0385492 -0.0113163 -1.58259e-22)
(0.0387882 -0.0113629 1.92691e-22)
(0.0390274 -0.0114057 -1.92847e-22)
(0.0392667 -0.0114449 -7.2178e-23)
(0.039506 -0.0114805 -4.67576e-23)
(0.0397451 -0.0115128 1.6402e-22)
(0.039984 -0.0115418 6.98297e-23)
(0.0402225 -0.0115677 -2.21281e-22)
(0.0404606 -0.0115907 -1.73334e-22)
(0.0406981 -0.0116109 -4.58151e-22)
(0.040935 -0.0116287 4.61284e-22)
(0.0411712 -0.0116441 6.31241e-22)
(0.0414066 -0.0116574 -6.36761e-22)
(0.0416413 -0.0116688 0)
(0.0418751 -0.0116787 0)
(0.0421081 -0.0116873 1.14489e-21)
(0.0423402 -0.0116949 4.70352e-23)
(0.0425714 -0.0117018 -4.9398e-22)
(0.0428018 -0.0117084 -5.62279e-22)
(0.0430313 -0.011715 5.52655e-22)
(0.0432599 -0.011722 0)
(0.0434877 -0.0117299 -3.09796e-22)
(0.0437148 -0.0117389 -4.98839e-22)
(0.0439412 -0.0117496 3.28992e-22)
(0.044167 -0.0117624 -1.33252e-24)
(0.0443923 -0.0117779 -2.92717e-23)
(0.0446172 -0.0117967 1.3816e-22)
(0.044842 -0.0118194 9.64629e-23)
(0.0450668 -0.0118468 2.01385e-22)
(0.0452918 -0.0118796 -1.01482e-21)
(0.0455172 -0.0119187 -7.01041e-24)
(0.0457434 -0.011965 0)
(0.0459705 -0.0120197 -8.71971e-22)
(0.0461988 -0.0120837 2.68784e-21)
(0.0464286 -0.0121586 -1.80404e-21)
(0.0466602 -0.0122456 -9.47025e-22)
(0.0468941 -0.0123465 -1.48852e-23)
(0.0471309 -0.0124632 -1.00841e-21)
(0.0473712 -0.0125976 -6.99658e-23)
(0.0476163 -0.0127521 1.99247e-21)
(0.0478682 -0.01293 -2.06083e-21)
(0.048131 -0.013135 -2.161e-21)
(0.0484086 -0.013371 4.34737e-21)
(0.0486975 -0.0136379 6.01381e-23)
(0.0489754 -0.0139281 2.33685e-21)
(0.0492135 -0.0142346 -2.31189e-21)
(0.0494699 -0.0145986 2.46201e-21)
(0.0500609 -0.0151548 -5.06583e-21)
(0.0513274 -0.0159443 -2.62094e-21)
(0.0524963 -0.0165573 5.17202e-21)
(0.0513868 -0.0163126 -2.77658e-21)
(0.0468952 -0.0151413 -9.02762e-21)
(0.0407975 -0.0138509 -3.49412e-21)
(0.0357797 -0.0132027 0)
(0.0349209 -0.0105289 0)
(0.0351454 -0.0106375 -7.57304e-22)
(0.0353723 -0.0107417 9.33048e-24)
(0.0356015 -0.0108413 0)
(0.0358328 -0.0109364 0)
(0.0360663 -0.0110271 -5.76663e-22)
(0.0363019 -0.0111133 1.55441e-21)
(0.0365393 -0.0111951 -1.95288e-21)
(0.0367784 -0.0112724 9.3141e-22)
(0.037019 -0.0113452 -4.02892e-22)
(0.037261 -0.0114135 0)
(0.037504 -0.0114775 -3.19811e-22)
(0.037748 -0.0115371 2.73852e-22)
(0.0379928 -0.0115924 0)
(0.038238 -0.0116435 0)
(0.0384837 -0.0116904 -1.15293e-22)
(0.0387295 -0.0117333 8.29559e-23)
(0.0389753 -0.0117722 1.79923e-22)
(0.039221 -0.0118073 2.45392e-23)
(0.0394663 -0.0118387 -1.37707e-23)
(0.0397112 -0.0118665 5.02855e-23)
(0.0399554 -0.011891 4.34873e-22)
(0.040199 -0.0119123 4.3445e-23)
(0.0404417 -0.0119305 -2.31895e-22)
(0.0406835 -0.011946 4.10963e-22)
(0.0409243 -0.0119588 -3.04658e-22)
(0.041164 -0.0119693 5.88386e-22)
(0.0414025 -0.0119777 0)
(0.0416398 -0.0119842 0)
(0.0418759 -0.0119892 0)
(0.0421106 -0.0119929 -2.31935e-22)
(0.042344 -0.0119957 -5.15629e-22)
(0.0425762 -0.0119979 5.14751e-22)
(0.0428069 -0.0119998 5.83557e-22)
(0.0430364 -0.0120018 -5.73765e-22)
(0.0432646 -0.0120043 0)
(0.0434915 -0.0120077 3.32535e-22)
(0.0437172 -0.0120124 -1.6059e-22)
(0.0439418 -0.0120189 0)
(0.0441652 -0.0120277 1.80265e-22)
(0.0443877 -0.0120394 -3.53183e-23)
(0.0446093 -0.0120545 2.34068e-23)
(0.04483 -0.0120738 -9.79244e-23)
(0.0450501 -0.0120978 0)
(0.0452696 -0.0121275 -4.22801e-22)
(0.0454886 -0.0121637 4.16521e-22)
(0.0457072 -0.0122073 0)
(0.0459255 -0.0122594 -1.74968e-23)
(0.0461435 -0.0123211 -1.52962e-23)
(0.0463615 -0.012394 9.26814e-22)
(0.0465797 -0.0124795 0)
(0.0467983 -0.0125793 3.82142e-24)
(0.0470179 -0.0126956 -9.87458e-22)
(0.0472392 -0.0128306 -3.04337e-21)
(0.0474639 -0.0129873 -2.2413e-23)
(0.0476948 -0.0131694 2.10603e-21)
(0.0479352 -0.013381 0)
(0.048183 -0.0136232 0)
(0.0484215 -0.0138912 2.21629e-21)
(0.0486234 -0.0141777 0)
(0.0488062 -0.0145001 0)
(0.0491662 -0.0149557 8.85516e-23)
(0.0500961 -0.0156693 -2.42814e-21)
(0.0514774 -0.0164708 -5.07695e-21)
(0.0516774 -0.0167223 5.1467e-21)
(0.0486847 -0.0159139 1.887e-22)
(0.04286 -0.0144803 3.12185e-21)
(0.036847 -0.0133911 3.31705e-21)
(0.0328125 -0.0131439 0)
(0.0347239 -0.0109463 0)
(0.0349597 -0.0110556 7.73871e-22)
(0.0351976 -0.0111601 -2.14683e-21)
(0.0354375 -0.0112597 7.24086e-22)
(0.0356793 -0.0113543 0)
(0.035923 -0.0114442 1.72766e-21)
(0.0361683 -0.0115292 -2.72333e-21)
(0.0364152 -0.0116093 8.62302e-23)
(0.0366635 -0.0116846 2.2711e-21)
(0.0369129 -0.011755 -4.54707e-22)
(0.0371634 -0.0118207 3.61982e-22)
(0.0374148 -0.0118816 3.17089e-22)
(0.0376668 -0.0119379 -7.89475e-22)
(0.0379193 -0.0119895 9.31707e-22)
(0.0381721 -0.0120367 -4.22055e-22)
(0.0384249 -0.0120795 9.82696e-23)
(0.0386776 -0.012118 -4.10736e-22)
(0.0389301 -0.0121523 1.09693e-22)
(0.0391821 -0.0121827 3.29309e-23)
(0.0394334 -0.0122092 5.16349e-23)
(0.039684 -0.0122319 8.66711e-23)
(0.0399336 -0.0122512 -6.8706e-22)
(0.0401821 -0.0122672 -2.37683e-22)
(0.0404294 -0.0122801 -8.69796e-23)
(0.0406754 -0.0122901 7.08068e-22)
(0.04092 -0.0122975 -2.84549e-22)
(0.0411631 -0.0123024 7.21698e-22)
(0.0414047 -0.0123052 -1.12411e-21)
(0.0416446 -0.0123062 0)
(0.0418828 -0.0123057 -4.8143e-22)
(0.0421193 -0.012304 4.73201e-22)
(0.042354 -0.0123013 9.04656e-24)
(0.042587 -0.0122982 -2.83448e-22)
(0.0428182 -0.0122948 -2.9821e-22)
(0.0430477 -0.0122916 9.47243e-22)
(0.0432755 -0.012289 -6.24556e-22)
(0.0435015 -0.0122873 5.13489e-22)
(0.0437258 -0.0122872 -6.9508e-22)
(0.0439485 -0.0122889 3.50926e-22)
(0.0441695 -0.0122931 -9.21367e-23)
(0.0443889 -0.0123002 0)
(0.0446068 -0.0123109 1.00575e-22)
(0.0448231 -0.0123259 -9.90631e-23)
(0.0450379 -0.0123457 -2.11495e-22)
(0.0452511 -0.0123712 6.41301e-22)
(0.0454628 -0.0124033 -4.20392e-22)
(0.0456729 -0.0124429 -4.36283e-22)
(0.0458813 -0.0124911 0)
(0.0460881 -0.0125492 -1.86741e-21)
(0.0462934 -0.0126186 1.88746e-21)
(0.0464972 -0.0127009 -9.62923e-22)
(0.0466998 -0.0127981 9.5117e-22)
(0.0469016 -0.0129123 9.64017e-22)
(0.0471036 -0.0130463 2.02276e-21)
(0.047308 -0.0132036 2.08346e-21)
(0.0475171 -0.0133881 0)
(0.0477291 -0.0136017 -2.13501e-21)
(0.0479304 -0.0138415 0)
(0.0480969 -0.0141011 1.45116e-23)
(0.0482299 -0.0143884 -2.34104e-21)
(0.0484491 -0.0147666 2.32296e-21)
(0.0490767 -0.0153671 2.44666e-21)
(0.050319 -0.0161932 -2.39717e-21)
(0.0512706 -0.0167997 -2.57934e-23)
(0.04981 -0.0164862 -1.1356e-22)
(0.0449384 -0.0151726 8.73271e-21)
(0.0384454 -0.0137197 3.14144e-21)
(0.0331213 -0.01302 3.61172e-21)
(0.0302059 -0.0132076 -3.48232e-21)
(0.0345213 -0.0113858 0)
(0.0347689 -0.0114955 0)
(0.0350187 -0.0116 -1.46325e-21)
(0.0352703 -0.0116992 2.15501e-21)
(0.0355236 -0.0117931 6.55133e-22)
(0.0357786 -0.0118818 0)
(0.0360349 -0.0119652 0)
(0.0362924 -0.0120433 -5.06619e-22)
(0.036551 -0.0121162 8.76145e-22)
(0.0368104 -0.0121839 -9.66068e-23)
(0.0370705 -0.0122464 -1.83621e-21)
(0.037331 -0.0123038 3.62337e-22)
(0.0375918 -0.0123563 -2.34226e-22)
(0.0378527 -0.0124038 5.01683e-22)
(0.0381136 -0.0124465 -1.75669e-22)
(0.0383741 -0.0124846 0)
(0.0386341 -0.0125181 0)
(0.0388935 -0.0125472 4.32458e-23)
(0.039152 -0.0125721 4.15245e-23)
(0.0394096 -0.012593 3.56688e-23)
(0.0396659 -0.0126101 -9.81261e-23)
(0.0399209 -0.0126235 1.25249e-22)
(0.0401744 -0.0126335 2.13308e-22)
(0.0404263 -0.0126403 -1.69124e-22)
(0.0406765 -0.0126442 -2.6181e-22)
(0.0409249 -0.0126453 0)
(0.0411714 -0.0126441 0)
(0.0414158 -0.0126407 6.14087e-22)
(0.0416583 -0.0126355 0)
(0.0418986 -0.0126289 5.06301e-22)
(0.0421367 -0.012621 -4.97828e-22)
(0.0423727 -0.0126124 -2.7098e-22)
(0.0426064 -0.0126032 2.86658e-22)
(0.042838 -0.0125939 6.12969e-22)
(0.0430673 -0.0125849 -3.16128e-22)
(0.0432944 -0.0125766 -3.43457e-22)
(0.0435193 -0.0125693 3.42304e-22)
(0.043742 -0.0125635 0)
(0.0439624 -0.0125598 0)
(0.0441805 -0.0125585 9.68522e-23)
(0.0443964 -0.0125602 0)
(0.04461 -0.0125656 0)
(0.0448212 -0.0125752 -3.16771e-22)
(0.0450299 -0.0125897 4.23307e-22)
(0.0452361 -0.0126099 -2.1901e-22)
(0.0454397 -0.0126368 4.43538e-22)
(0.0456406 -0.0126711 0)
(0.0458387 -0.0127142 1.40606e-21)
(0.0460338 -0.0127672 1.40093e-23)
(0.046226 -0.0128316 0)
(0.0464152 -0.0129092 -1.957e-21)
(0.0466015 -0.0130018 1.66047e-23)
(0.0467856 -0.0131121 -2.01332e-21)
(0.0469687 -0.0132434 -1.02448e-21)
(0.0471525 -0.0133992 -2.12296e-21)
(0.0473345 -0.0135815 2.09968e-21)
(0.0475029 -0.0137885 2.18656e-21)
(0.0476364 -0.014015 0)
(0.04773 -0.0142653 -2.29194e-21)
(0.0478622 -0.0145822 -6.62039e-23)
(0.0482741 -0.0150747 0)
(0.0492587 -0.0158288 0)
(0.0504717 -0.0166107 2.44546e-21)
(0.0502148 -0.0167601 0)
(0.0466775 -0.0157905 0)
(0.0403813 -0.0141792 -2.90259e-21)
(0.0339889 -0.0129764 -3.40581e-21)
(0.0297754 -0.0127964 -3.51907e-21)
(0.0279164 -0.0133934 0)
(0.0343145 -0.0118494 0)
(0.0345744 -0.0119591 0)
(0.0348365 -0.0120632 0)
(0.0351003 -0.0121616 7.22687e-22)
(0.0353658 -0.0122542 6.22282e-22)
(0.0356327 -0.0123412 -9.64665e-23)
(0.0359009 -0.0124226 -1.18074e-21)
(0.03617 -0.0124982 5.17148e-22)
(0.0364398 -0.0125682 -4.60687e-22)
(0.0367101 -0.0126326 -8.28501e-22)
(0.0369807 -0.0126915 0)
(0.0372514 -0.0127449 0)
(0.0375219 -0.0127929 -4.56991e-23)
(0.0377922 -0.0128357 -7.00519e-22)
(0.0380618 -0.0128734 6.40875e-22)
(0.0383307 -0.0129061 -9.44777e-23)
(0.0385987 -0.012934 -2.02984e-22)
(0.0388656 -0.0129573 -3.9099e-23)
(0.0391311 -0.0129761 -1.93471e-23)
(0.0393952 -0.0129908 0)
(0.0396576 -0.0130014 2.21016e-22)
(0.0399182 -0.0130082 0)
(0.0401769 -0.0130115 4.08709e-22)
(0.0404336 -0.0130115 -7.87276e-22)
(0.040688 -0.0130085 8.61204e-22)
(0.0409402 -0.0130028 3.59351e-22)
(0.04119 -0.0129947 -6.22105e-22)
(0.0414373 -0.0129844 6.64588e-22)
(0.0416822 -0.0129723 -4.54365e-22)
(0.0419244 -0.0129588 0)
(0.042164 -0.0129442 -5.67307e-22)
(0.042401 -0.0129288 -3.36716e-22)
(0.0426353 -0.0129129 5.8973e-22)
(0.0428668 -0.012897 -6.40429e-22)
(0.0430957 -0.0128815 3.43599e-22)
(0.0433218 -0.0128666 -3.38265e-22)
(0.0435451 -0.0128529 -1.78137e-22)
(0.0437655 -0.0128408 1.88976e-22)
(0.0439832 -0.0128307 9.94848e-23)
(0.0441979 -0.0128231 -2.92183e-22)
(0.0444096 -0.0128185 -2.57174e-23)
(0.0446183 -0.0128176 0)
(0.0448238 -0.0128209 1.06329e-22)
(0.045026 -0.0128291 -2.17692e-22)
(0.0452249 -0.012843 2.2256e-22)
(0.0454202 -0.0128635 0)
(0.0456117 -0.0128914 0)
(0.0457994 -0.0129281 4.8915e-22)
(0.0459829 -0.0129746 -9.49607e-22)
(0.0461621 -0.0130324 -1.97453e-21)
(0.0463368 -0.0131034 3.98321e-21)
(0.0465072 -0.0131898 -1.00904e-21)
(0.0466743 -0.0132945 1.01306e-21)
(0.0468385 -0.0134207 1.04654e-21)
(0.0469966 -0.0135702 -2.14087e-21)
(0.0471375 -0.0137413 2.11993e-21)
(0.0472421 -0.01393 0)
(0.0473035 -0.0141392 -2.19292e-21)
(0.0473789 -0.0144015 -6.20037e-23)
(0.0476517 -0.0148027 2.26088e-21)
(0.0483968 -0.0154491 0)
(0.0495764 -0.0162611 0)
(0.0500601 -0.0167345 0)
(0.0478615 -0.0162046 5.03557e-21)
(0.0423337 -0.014676 2.83076e-21)
(0.0353867 -0.0130717 3.35008e-21)
(0.029785 -0.0123589 -6.9247e-21)
(0.0268584 -0.012748 1.81237e-22)
(0.0258264 -0.0136865 3.51753e-21)
(0.034105 -0.0123397 0)
(0.0343777 -0.0124489 1.65335e-21)
(0.0346526 -0.0125521 -2.03854e-21)
(0.0349292 -0.012649 1.05608e-21)
(0.0352073 -0.0127398 -2.09655e-21)
(0.0354867 -0.0128245 -6.2405e-22)
(0.0357672 -0.0129032 -5.6862e-22)
(0.0360484 -0.0129757 0)
(0.0363301 -0.0130422 9.29993e-22)
(0.036612 -0.0131026 7.88322e-22)
(0.0368939 -0.0131572 -7.73527e-22)
(0.0371755 -0.0132058 3.01551e-22)
(0.0374565 -0.0132488 -2.02272e-22)
(0.0377367 -0.0132861 3.16094e-22)
(0.0380159 -0.013318 6.16832e-22)
(0.0382939 -0.0133447 -9.86053e-23)
(0.0385705 -0.0133662 -9.81053e-23)
(0.0388454 -0.0133829 -7.12947e-23)
(0.0391184 -0.0133949 2.7143e-23)
(0.0393895 -0.0134025 2.20263e-22)
(0.0396584 -0.0134059 -1.96007e-22)
(0.0399249 -0.0134054 0)
(0.040189 -0.0134012 2.61144e-23)
(0.0404506 -0.0133937 0)
(0.0407094 -0.0133831 -3.16742e-22)
(0.0409654 -0.0133697 -3.65928e-22)
(0.0412185 -0.0133539 2.07801e-22)
(0.0414686 -0.013336 0)
(0.0417157 -0.0133163 2.60785e-22)
(0.0419597 -0.0132952 5.64259e-22)
(0.0422006 -0.013273 -5.55247e-22)
(0.0424382 -0.0132501 2.98648e-22)
(0.0426727 -0.0132268 -6.60149e-22)
(0.042904 -0.0132035 1.32384e-21)
(0.0431319 -0.0131806 -3.39336e-22)
(0.0433566 -0.0131585 0)
(0.0435778 -0.0131375 -1.90464e-22)
(0.0437957 -0.0131182 5.01308e-24)
(0.0440101 -0.013101 3.02687e-22)
(0.044221 -0.0130862 -2.53394e-22)
(0.0444283 -0.0130746 5.11054e-23)
(0.0446319 -0.0130665 -1.64334e-22)
(0.0448316 -0.0130627 1.0837e-22)
(0.0450273 -0.0130637 0)
(0.0452189 -0.0130703 0)
(0.0454061 -0.0130834 0)
(0.0455886 -0.0131039 4.78919e-22)
(0.0457661 -0.0131327 4.86442e-22)
(0.0459383 -0.0131712 0)
(0.0461049 -0.0132208 9.87421e-22)
(0.0462659 -0.0132836 1.00056e-21)
(0.0464217 -0.013362 1.02656e-21)
(0.0465716 -0.0134586 0)
(0.0467117 -0.0135746 0)
(0.0468307 -0.0137084 -2.15957e-21)
(0.0469116 -0.0138563 2.14171e-21)
(0.0469481 -0.0140211 0)
(0.0469866 -0.0142303 2.25121e-21)
(0.0471746 -0.0145542 -2.28008e-21)
(0.0477456 -0.0150922 -2.21552e-21)
(0.0487804 -0.0158474 2.28233e-21)
(0.049604 -0.0164854 -2.24377e-21)
(0.0484775 -0.0163504 0)
(0.0440087 -0.0150854 -2.63383e-21)
(0.0370951 -0.0132751 -7.18953e-24)
(0.0303625 -0.0120059 -6.36035e-21)
(0.0260316 -0.0119467 -7.17525e-21)
(0.0243375 -0.0128668 7.41996e-21)
(0.0238545 -0.0140486 -3.65897e-21)
(0.0338944 -0.0128592 4.65548e-22)
(0.0341807 -0.0129674 0)
(0.0344691 -0.0130691 4.05784e-22)
(0.034759 -0.013164 -1.82464e-21)
(0.0350503 -0.0132523 3.11931e-21)
(0.0353428 -0.0133341 -6.84768e-22)
(0.0356362 -0.0134093 5.80349e-22)
(0.03593 -0.0134779 -9.84958e-22)
(0.0362241 -0.01354 5.10976e-22)
(0.036518 -0.0135957 4.14674e-22)
(0.0368116 -0.013645 3.43173e-22)
(0.0371045 -0.0136881 -8.53437e-22)
(0.0373965 -0.0137251 3.10062e-22)
(0.0376872 -0.0137561 -5.15089e-22)
(0.0379764 -0.0137814 -4.76257e-23)
(0.0382639 -0.013801 1.02839e-22)
(0.0385495 -0.0138154 1.26999e-22)
(0.0388328 -0.0138245 0)
(0.0391138 -0.0138288 0)
(0.0393922 -0.0138285 -1.29363e-22)
(0.0396678 -0.0138238 -1.50826e-22)
(0.0399405 -0.0138151 -4.7718e-22)
(0.0402102 -0.0138026 2.2868e-22)
(0.0404767 -0.0137866 6.76881e-22)
(0.0407399 -0.0137676 -6.80449e-22)
(0.0409998 -0.0137457 2.1619e-22)
(0.0412561 -0.0137214 2.40612e-22)
(0.041509 -0.013695 0)
(0.0417582 -0.0136669 -2.63216e-22)
(0.0420038 -0.0136374 -5.98047e-22)
(0.0422456 -0.0136068 -4.26476e-23)
(0.0424838 -0.0135757 6.21662e-22)
(0.0427182 -0.0135442 -3.44049e-22)
(0.0429488 -0.0135127 0)
(0.0431756 -0.0134818 1.86071e-22)
(0.0433986 -0.0134517 -1.92578e-22)
(0.0436176 -0.0134228 1.92879e-22)
(0.0438327 -0.0133956 -4.03684e-22)
(0.0440438 -0.0133704 0)
(0.0442508 -0.0133479 -5.38836e-23)
(0.0444537 -0.0133284 5.45634e-23)
(0.0446523 -0.0133125 -8.6388e-23)
(0.0448464 -0.0133007 3.4357e-22)
(0.0450359 -0.0132937 -7.00588e-22)
(0.0452205 -0.0132922 4.65979e-22)
(0.0454 -0.0132968 4.88405e-22)
(0.0455739 -0.0133085 -4.7782e-22)
(0.0457417 -0.0133282 1.01013e-21)
(0.0459033 -0.0133572 -9.9483e-22)
(0.0460585 -0.0133972 -2.56474e-21)
(0.046207 -0.0134502 -1.20634e-23)
(0.0463475 -0.013518 -1.04749e-21)
(0.0464748 -0.013601 0)
(0.0465775 -0.0136971 0)
(0.0466403 -0.013803 -2.1806e-21)
(0.0466597 -0.0139219 3.28481e-21)
(0.0466779 -0.014079 -2.18791e-21)
(0.0468208 -0.0143352 0)
(0.0472841 -0.0147772 2.18441e-21)
(0.048173 -0.015439 4.47111e-21)
(0.0490845 -0.0161141 -2.2552e-21)
(0.0486651 -0.0162496 -5.58565e-23)
(0.0452544 -0.015309 2.36696e-21)
(0.0388136 -0.0134929 1.34211e-22)
(0.0314297 -0.011776 -6.08414e-21)
(0.025654 -0.011123 6.89596e-21)
(0.0228025 -0.0117811 3.79346e-21)
(0.0221105 -0.013137 0)
(0.0219129 -0.0144658 0)
(0.0336837 -0.0134108 -4.75415e-22)
(0.0339846 -0.0135176 -2.16236e-21)
(0.0342874 -0.0136171 1.70635e-21)
(0.0345916 -0.0137094 0)
(0.034897 -0.0137945 3.50994e-22)
(0.0352033 -0.0138726 1.21454e-21)
(0.0355102 -0.0139435 -9.24311e-22)
(0.0358173 -0.0140074 1.22586e-21)
(0.0361242 -0.0140643 -9.68481e-22)
(0.0364308 -0.0141142 0)
(0.0367365 -0.0141574 -1.86241e-22)
(0.0370412 -0.0141939 0)
(0.0373445 -0.0142239 -1.61551e-22)
(0.037646 -0.0142475 5.83767e-22)
(0.0379456 -0.0142651 0)
(0.0382429 -0.0142767 0)
(0.0385377 -0.0142827 0)
(0.0388297 -0.0142833 -1.0724e-22)
(0.0391188 -0.0142789 1.37155e-22)
(0.0394046 -0.0142696 1.31769e-22)
(0.0396871 -0.0142558 0)
(0.0399661 -0.0142378 0)
(0.0402414 -0.014216 0)
(0.0405129 -0.0141907 -9.42411e-22)
(0.0407805 -0.0141623 1.18955e-21)
(0.0410441 -0.014131 -6.52159e-22)
(0.0413036 -0.0140973 -5.03233e-22)
(0.041559 -0.0140616 5.64192e-22)
(0.0418102 -0.0140242 -5.55461e-22)
(0.0420572 -0.0139855 3.15913e-22)
(0.0422999 -0.0139458 -6.6864e-22)
(0.0425384 -0.0139056 3.10341e-22)
(0.0427726 -0.0138651 7.11032e-22)
(0.0430025 -0.0138248 3.77409e-22)
(0.043228 -0.0137851 -1.88261e-22)
(0.0434492 -0.0137463 1.94927e-22)
(0.043666 -0.0137088 0)
(0.0438783 -0.013673 -6.2473e-24)
(0.0440862 -0.0136394 1.09998e-22)
(0.0442895 -0.0136084 2.15513e-24)
(0.0444881 -0.0135804 -5.65931e-23)
(0.0446819 -0.0135559 1.45982e-22)
(0.0448708 -0.0135355 -2.34854e-22)
(0.0450543 -0.0135196 -1.21022e-22)