/*--------------------------------*- C++ -*----------------------------------*\
| =========                 |                                                 |
| \\      /  F ield         | OpenFOAM: The Open Source CFD Toolbox           |
|  \\    /   O peration     | Version:  2312                                  |
|   \\  /    A nd           | Website:  www.openfoam.com                      |
|    \\/     M anipulation  |                                                 |
\*---------------------------------------------------------------------------*/
FoamFile
{
    version     2.0;
    format      ascii;
    arch        "LSB;label=32;scalar=64";
    class       volScalarField;
    location    "1300";
    object      k;
}
// * * * * * * * * * * * * * * * * * * * * * * * * * * * * * * * * * * * * * //

dimensions      [0 2 -2 0 0 0 0];

internalField   nonuniform List<scalar> 
76025
(
4.8016e-06
4.80402e-06
4.80514e-06
4.8078e-06
4.80826e-06
4.80957e-06
4.81029e-06
4.80903e-06
4.81013e-06
4.81115e-06
4.8171e-06
4.81888e-06
4.82004e-06
4.8191e-06
4.81527e-06
4.80947e-06
4.80985e-06
4.80844e-06
4.80819e-06
4.80969e-06
4.80987e-06
4.81574e-06
4.81761e-06
4.81814e-06
4.81872e-06
4.81072e-06
4.81525e-06
4.81044e-06
4.80849e-06
4.8082e-06
4.80967e-06
4.81254e-06
4.81902e-06
4.82695e-06
4.83117e-06
4.84673e-06
4.85368e-06
4.85416e-06
4.85301e-06
4.85744e-06
4.86739e-06
4.87992e-06
4.89956e-06
4.92089e-06
4.94915e-06
4.97979e-06
5.01751e-06
5.05253e-06
5.10027e-06
5.13762e-06
5.19008e-06
5.22539e-06
5.27714e-06
5.30752e-06
5.36342e-06
5.3924e-06
5.44816e-06
5.4808e-06
5.54439e-06
5.58507e-06
5.65863e-06
5.69919e-06
5.78472e-06
5.83777e-06
5.93345e-06
6.01498e-06
6.09471e-06
6.22371e-06
6.30158e-06
4.82827e-06
4.82937e-06
4.82893e-06
4.82969e-06
4.83092e-06
4.83281e-06
4.83513e-06
4.83666e-06
4.84012e-06
4.84495e-06
4.84717e-06
4.8473e-06
4.85186e-06
4.85264e-06
4.85314e-06
4.85278e-06
4.85368e-06
4.85393e-06
4.8524e-06
4.85684e-06
4.8584e-06
4.85798e-06
4.86422e-06
4.86622e-06
4.86492e-06
4.87077e-06
4.87087e-06
4.86985e-06
4.8711e-06
4.87477e-06
4.87777e-06
4.88774e-06
4.89383e-06
4.90137e-06
4.90815e-06
4.90736e-06
4.91339e-06
4.92783e-06
4.95274e-06
4.96435e-06
4.9631e-06
4.96908e-06
4.98522e-06
5.00395e-06
5.0314e-06
5.05842e-06
5.0935e-06
5.12586e-06
5.16539e-06
5.20064e-06
5.24375e-06
5.28085e-06
5.32795e-06
5.36731e-06
5.41873e-06
5.45938e-06
5.51752e-06
5.56066e-06
5.62552e-06
5.67214e-06
5.74431e-06
5.79818e-06
5.88229e-06
5.94154e-06
6.04568e-06
6.10726e-06
6.23811e-06
6.31976e-06
6.44205e-06
4.85877e-06
4.86192e-06
4.86289e-06
4.86268e-06
4.8626e-06
4.86353e-06
4.86464e-06
4.8665e-06
4.86839e-06
4.87186e-06
4.87411e-06
4.87719e-06
4.88068e-06
4.88421e-06
4.88627e-06
4.8922e-06
4.89015e-06
4.89438e-06
4.89196e-06
4.89269e-06
4.89543e-06
4.89833e-06
4.90268e-06
4.91192e-06
4.91536e-06
4.9143e-06
4.91363e-06
4.91557e-06
4.91968e-06
4.92608e-06
4.93178e-06
4.9416e-06
4.94852e-06
4.95813e-06
4.96988e-06
4.97653e-06
4.99448e-06
5.00532e-06
5.01743e-06
5.02846e-06
5.02838e-06
5.03716e-06
5.05625e-06
5.0772e-06
5.10631e-06
5.13363e-06
5.16927e-06
5.20026e-06
5.24078e-06
5.27422e-06
5.3193e-06
5.35479e-06
5.40454e-06
5.44161e-06
5.49611e-06
5.53497e-06
5.59487e-06
5.63631e-06
5.70279e-06
5.74888e-06
5.82354e-06
5.87846e-06
5.95978e-06
6.02885e-06
6.11788e-06
6.20289e-06
6.31025e-06
6.40369e-06
6.54384e-06
4.89809e-06
4.89908e-06
4.90016e-06
4.90064e-06
4.89955e-06
4.90015e-06
4.90132e-06
4.90373e-06
4.90617e-06
4.90963e-06
4.91467e-06
4.92125e-06
4.92397e-06
4.92605e-06
4.9248e-06
4.92705e-06
4.92873e-06
4.93505e-06
4.9388e-06
4.94429e-06
4.94875e-06
4.9532e-06
4.96266e-06
4.96656e-06
4.9671e-06
4.96728e-06
4.97396e-06
4.97804e-06
4.98483e-06
4.98895e-06
5.00477e-06
5.01233e-06
5.01861e-06
5.01335e-06
5.00985e-06
5.01221e-06
5.02028e-06
5.03007e-06
5.04409e-06
5.05884e-06
5.07876e-06
5.09884e-06
5.12484e-06
5.14953e-06
5.18074e-06
5.20897e-06
5.24476e-06
5.27582e-06
5.3159e-06
5.34935e-06
5.39389e-06
5.42949e-06
5.47887e-06
5.5165e-06
5.57137e-06
5.61119e-06
5.67263e-06
5.71555e-06
5.78486e-06
5.83266e-06
5.91145e-06
5.96659e-06
6.05567e-06
6.12306e-06
6.22145e-06
6.30974e-06
6.41907e-06
6.53173e-06
6.66897e-06
4.9374e-06
4.93764e-06
4.94128e-06
4.94204e-06
4.94035e-06
4.94033e-06
4.94312e-06
4.94794e-06
4.94978e-06
4.94909e-06
4.95126e-06
4.95442e-06
4.95724e-06
4.96296e-06
4.97074e-06
4.97383e-06
4.97592e-06
4.97423e-06
4.97606e-06
4.98165e-06
4.98551e-06
4.99175e-06
4.99734e-06
5.00269e-06
5.00874e-06
5.01412e-06
5.0215e-06
5.03042e-06
5.03857e-06
5.04984e-06
5.05568e-06
5.07407e-06
5.06766e-06
5.08433e-06
5.07645e-06
5.07636e-06
5.0853e-06
5.09772e-06
5.11524e-06
5.13333e-06
5.15622e-06
5.17829e-06
5.20581e-06
5.23124e-06
5.26308e-06
5.29151e-06
5.32762e-06
5.35884e-06
5.3993e-06
5.43312e-06
5.47824e-06
5.51453e-06
5.56488e-06
5.60355e-06
5.65992e-06
5.70122e-06
5.76458e-06
5.80944e-06
5.88084e-06
5.93111e-06
6.01159e-06
6.06974e-06
6.16067e-06
6.23015e-06
6.333e-06
6.42057e-06
6.53492e-06
6.64897e-06
6.78324e-06
4.98047e-06
4.98091e-06
4.98221e-06
4.98462e-06
4.98637e-06
4.98736e-06
4.99263e-06
4.99468e-06
4.99354e-06
4.99388e-06
4.99587e-06
5.001e-06
5.00906e-06
5.0121e-06
5.01363e-06
5.01651e-06
5.02095e-06
5.02937e-06
5.03238e-06
5.03134e-06
5.03328e-06
5.03606e-06
5.04308e-06
5.0492e-06
5.05772e-06
5.06835e-06
5.07434e-06
5.08974e-06
5.09802e-06
5.10808e-06
5.11656e-06
5.11761e-06
5.11474e-06
5.11896e-06
5.12848e-06
5.14053e-06
5.1566e-06
5.17343e-06
5.19408e-06
5.21438e-06
5.23901e-06
5.26241e-06
5.29093e-06
5.31732e-06
5.34976e-06
5.3791e-06
5.41557e-06
5.44778e-06
5.48847e-06
5.52345e-06
5.56876e-06
5.60637e-06
5.65699e-06
5.69704e-06
5.75397e-06
5.7965e-06
5.86094e-06
5.90677e-06
5.97973e-06
6.03088e-06
6.11328e-06
6.1726e-06
6.2664e-06
6.33663e-06
6.44557e-06
6.53102e-06
6.65628e-06
6.7724e-06
6.90613e-06
5.02499e-06
5.02619e-06
5.02789e-06
5.0341e-06
5.03624e-06
5.03845e-06
5.03718e-06
5.03851e-06
5.03802e-06
5.04007e-06
5.04203e-06
5.04691e-06
5.05121e-06
5.05955e-06
5.06378e-06
5.07372e-06
5.07717e-06
5.08198e-06
5.08516e-06
5.08096e-06
5.08032e-06
5.0862e-06
5.09373e-06
5.10249e-06
5.1166e-06
5.12539e-06
5.13988e-06
5.15326e-06
5.16077e-06
5.18095e-06
5.18977e-06
5.19184e-06
5.18896e-06
5.1937e-06
5.20496e-06
5.21893e-06
5.23702e-06
5.25571e-06
5.27808e-06
5.30002e-06
5.32601e-06
5.3509e-06
5.38043e-06
5.40825e-06
5.44138e-06
5.47212e-06
5.50895e-06
5.54265e-06
5.58339e-06
5.62e-06
5.66508e-06
5.70449e-06
5.75472e-06
5.79671e-06
5.8534e-06
5.8979e-06
5.9627e-06
6.01046e-06
6.08462e-06
6.13839e-06
6.22199e-06
6.28664e-06
6.37979e-06
6.45989e-06
6.56683e-06
6.66206e-06
6.7946e-06
6.90387e-06
7.06338e-06
5.07793e-06
5.08165e-06
5.08411e-06
5.08829e-06
5.09072e-06
5.09565e-06
5.09911e-06
5.10252e-06
5.10524e-06
5.10799e-06
5.11139e-06
5.11839e-06
5.11556e-06
5.12051e-06
5.11835e-06
5.122e-06
5.1251e-06
5.13162e-06
5.13841e-06
5.14491e-06
5.15243e-06
5.16523e-06
5.17452e-06
5.17845e-06
5.18189e-06
5.18567e-06
5.19239e-06
5.19994e-06
5.20845e-06
5.21814e-06
5.22876e-06
5.23983e-06
5.25283e-06
5.26693e-06
5.28394e-06
5.30163e-06
5.32222e-06
5.34304e-06
5.36695e-06
5.3907e-06
5.41789e-06
5.4446e-06
5.47498e-06
5.50461e-06
5.53811e-06
5.57062e-06
5.60732e-06
5.64285e-06
5.683e-06
5.7216e-06
5.7657e-06
5.8074e-06
5.85639e-06
5.90109e-06
5.95667e-06
6.00416e-06
6.06883e-06
6.11932e-06
6.1955e-06
6.25115e-06
6.33931e-06
6.40613e-06
6.50355e-06
6.59122e-06
6.69406e-06
6.81038e-06
6.92522e-06
7.0608e-06
7.21505e-06
5.12936e-06
5.13436e-06
5.1392e-06
5.14371e-06
5.14653e-06
5.14988e-06
5.15211e-06
5.1548e-06
5.15702e-06
5.15897e-06
5.16249e-06
5.16656e-06
5.17753e-06
5.18186e-06
5.18603e-06
5.18921e-06
5.18677e-06
5.18881e-06
5.19369e-06
5.20032e-06
5.20801e-06
5.21651e-06
5.22466e-06
5.23202e-06
5.23953e-06
5.24746e-06
5.25663e-06
5.26676e-06
5.27826e-06
5.29073e-06
5.30472e-06
5.3196e-06
5.33624e-06
5.35371e-06
5.37319e-06
5.39333e-06
5.41556e-06
5.43837e-06
5.46334e-06
5.48889e-06
5.51659e-06
5.54491e-06
5.5753e-06
5.60649e-06
5.63959e-06
5.6738e-06
5.70972e-06
5.74715e-06
5.78617e-06
5.82703e-06
5.86971e-06
5.91424e-06
5.96169e-06
6.01012e-06
6.06425e-06
6.11653e-06
6.1805e-06
6.23619e-06
6.31413e-06
6.37338e-06
6.46837e-06
6.53447e-06
6.64582e-06
6.72706e-06
6.84867e-06
6.96021e-06
7.08234e-06
7.23561e-06
7.38209e-06
5.20078e-06
5.20265e-06
5.20265e-06
5.20466e-06
5.20892e-06
5.21382e-06
5.2194e-06
5.22516e-06
5.23107e-06
5.23645e-06
5.24123e-06
5.24639e-06
5.25213e-06
5.25592e-06
5.26133e-06
5.2661e-06
5.27071e-06
5.2747e-06
5.28567e-06
5.28954e-06
5.28671e-06
5.28839e-06
5.29412e-06
5.30205e-06
5.31146e-06
5.32194e-06
5.33372e-06
5.34638e-06
5.36041e-06
5.3753e-06
5.3916e-06
5.40879e-06
5.42735e-06
5.44692e-06
5.4679e-06
5.48983e-06
5.51321e-06
5.53775e-06
5.56348e-06
5.59072e-06
5.61872e-06
5.64858e-06
5.67885e-06
5.71156e-06
5.7442e-06
5.78008e-06
5.81525e-06
5.85467e-06
5.89273e-06
5.93618e-06
5.97783e-06
6.02586e-06
6.07233e-06
6.12555e-06
6.17878e-06
6.23761e-06
6.30075e-06
6.36469e-06
6.44265e-06
6.51034e-06
6.60827e-06
6.68001e-06
6.79998e-06
6.88024e-06
7.02e-06
7.12012e-06
7.26732e-06
7.4219e-06
7.54822e-06
5.27499e-06
5.27879e-06
5.28378e-06
5.28728e-06
5.29078e-06
5.29393e-06
5.29636e-06
5.3004e-06
5.3048e-06
5.31054e-06
5.31569e-06
5.3221e-06
5.3283e-06
5.33492e-06
5.34143e-06
5.34877e-06
5.35678e-06
5.36248e-06
5.37025e-06
5.38416e-06
5.38922e-06
5.38918e-06
5.3869e-06
5.39117e-06
5.39968e-06
5.41062e-06
5.42342e-06
5.4376e-06
5.45295e-06
5.46955e-06
5.48714e-06
5.50597e-06
5.52572e-06
5.54682e-06
5.56879e-06
5.59224e-06
5.61633e-06
5.64222e-06
5.66839e-06
5.69668e-06
5.72497e-06
5.75583e-06
5.78638e-06
5.82011e-06
5.85308e-06
5.89013e-06
5.92571e-06
5.96678e-06
6.0053e-06
6.05125e-06
6.09344e-06
6.14515e-06
6.19231e-06
6.25066e-06
6.3047e-06
6.37049e-06
6.4342e-06
6.50739e-06
6.58543e-06
6.66408e-06
6.76283e-06
6.84488e-06
6.96863e-06
7.05602e-06
7.20584e-06
7.30273e-06
7.48345e-06
7.6018e-06
7.79906e-06
5.34806e-06
5.35205e-06
5.35518e-06
5.35956e-06
5.36255e-06
5.36628e-06
5.37011e-06
5.37361e-06
5.3794e-06
5.38446e-06
5.39159e-06
5.3983e-06
5.40561e-06
5.41468e-06
5.42451e-06
5.43029e-06
5.44401e-06
5.45158e-06
5.46393e-06
5.47981e-06
5.47751e-06
5.48897e-06
5.4863e-06
5.49033e-06
5.49897e-06
5.51063e-06
5.52412e-06
5.53931e-06
5.55556e-06
5.57316e-06
5.59164e-06
5.61135e-06
5.63195e-06
5.6539e-06
5.67657e-06
5.70085e-06
5.72568e-06
5.75234e-06
5.77934e-06
5.80843e-06
5.83774e-06
5.86922e-06
5.9011e-06
5.93529e-06
5.97007e-06
6.00761e-06
6.04553e-06
6.08742e-06
6.12874e-06
6.17627e-06
6.22156e-06
6.27603e-06
6.32648e-06
6.38903e-06
6.4465e-06
6.51815e-06
6.58509e-06
6.66638e-06
6.74666e-06
6.83612e-06
6.93615e-06
7.03056e-06
7.15622e-06
7.25716e-06
7.40743e-06
7.52635e-06
7.70305e-06
7.84217e-06
8.06506e-06
5.44364e-06
5.44728e-06
5.45253e-06
5.45701e-06
5.46362e-06
5.46849e-06
5.47656e-06
5.48199e-06
5.49138e-06
5.49808e-06
5.50838e-06
5.51681e-06
5.52589e-06
5.53803e-06
5.5448e-06
5.55798e-06
5.5658e-06
5.58219e-06
5.58881e-06
5.59748e-06
5.60327e-06
5.60182e-06
5.59696e-06
5.6006e-06
5.6096e-06
5.62212e-06
5.6365e-06
5.65268e-06
5.66976e-06
5.68829e-06
5.70745e-06
5.72806e-06
5.74923e-06
5.77195e-06
5.79532e-06
5.82021e-06
5.84589e-06
5.87321e-06
5.90128e-06
5.93102e-06
5.96172e-06
5.99379e-06
6.02754e-06
6.06228e-06
6.09958e-06
6.1377e-06
6.17893e-06
6.2216e-06
6.26706e-06
6.31585e-06
6.36597e-06
6.42257e-06
6.47836e-06
6.54419e-06
6.60743e-06
6.68364e-06
6.75667e-06
6.84408e-06
6.9302e-06
7.028e-06
7.13345e-06
7.23735e-06
7.37201e-06
7.47857e-06
7.64797e-06
7.77246e-06
7.96635e-06
8.12584e-06
8.36558e-06
5.54077e-06
5.54415e-06
5.54922e-06
5.55347e-06
5.55984e-06
5.56507e-06
5.57254e-06
5.57854e-06
5.58656e-06
5.59319e-06
5.60127e-06
5.6085e-06
5.61588e-06
5.62409e-06
5.63097e-06
5.63924e-06
5.64682e-06
5.65567e-06
5.66362e-06
5.67248e-06
5.68189e-06
5.69183e-06
5.70286e-06
5.71529e-06
5.72937e-06
5.74463e-06
5.76115e-06
5.77857e-06
5.79703e-06
5.81636e-06
5.83664e-06
5.85791e-06
5.88011e-06
5.90348e-06
5.92776e-06
5.95341e-06
5.98e-06
6.00819e-06
6.03738e-06
6.06822e-06
6.1002e-06
6.13375e-06
6.16893e-06
6.20554e-06
6.24453e-06
6.28504e-06
6.32843e-06
6.37409e-06
6.42231e-06
6.47481e-06
6.52838e-06
6.58956e-06
6.64945e-06
6.72087e-06
6.78891e-06
6.87159e-06
6.95047e-06
7.04497e-06
7.13799e-06
7.24442e-06
7.35648e-06
7.47336e-06
7.6146e-06
7.73726e-06
7.92505e-06
8.05981e-06
8.28567e-06
8.46325e-06
8.77167e-06
5.65238e-06
5.65561e-06
5.65967e-06
5.66358e-06
5.66849e-06
5.67343e-06
5.67937e-06
5.6853e-06
5.69201e-06
5.69876e-06
5.70612e-06
5.71366e-06
5.72164e-06
5.73013e-06
5.739e-06
5.74852e-06
5.75872e-06
5.76958e-06
5.78122e-06
5.79342e-06
5.80658e-06
5.82029e-06
5.83506e-06
5.85039e-06
5.86684e-06
5.88383e-06
5.90191e-06
5.92051e-06
5.94021e-06
5.96051e-06
5.98191e-06
6.00406e-06
6.02738e-06
6.05164e-06
6.07704e-06
6.10371e-06
6.1315e-06
6.16083e-06
6.19107e-06
6.22338e-06
6.2564e-06
6.29194e-06
6.32822e-06
6.36771e-06
6.40788e-06
6.45233e-06
6.49698e-06
6.54777e-06
6.59739e-06
6.65633e-06
6.71142e-06
6.78055e-06
6.84201e-06
6.92304e-06
6.99284e-06
7.08641e-06
7.16834e-06
7.27352e-06
7.37332e-06
7.48867e-06
7.61298e-06
7.74108e-06
7.89623e-06
8.04419e-06
8.24415e-06
8.42052e-06
8.64129e-06
8.97119e-06
9.47561e-06
5.77573e-06
5.77929e-06
5.78329e-06
5.78747e-06
5.79223e-06
5.79737e-06
5.8032e-06
5.80957e-06
5.81664e-06
5.82425e-06
5.83259e-06
5.84146e-06
5.85112e-06
5.86134e-06
5.87236e-06
5.88399e-06
5.89648e-06
5.90947e-06
5.92332e-06
5.93763e-06
5.95287e-06
5.96853e-06
5.98518e-06
6.00219e-06
6.02026e-06
6.03865e-06
6.05817e-06
6.07797e-06
6.09904e-06
6.12038e-06
6.14312e-06
6.16623e-06
6.19088e-06
6.21605e-06
6.24286e-06
6.27045e-06
6.29977e-06
6.33029e-06
6.36249e-06
6.39637e-06
6.43169e-06
6.46927e-06
6.5081e-06
6.55009e-06
6.59315e-06
6.64076e-06
6.68874e-06
6.74355e-06
6.79693e-06
6.86107e-06
6.92013e-06
6.99612e-06
7.06143e-06
7.15145e-06
7.22489e-06
7.32969e-06
7.41582e-06
7.53349e-06
7.64145e-06
7.76831e-06
7.91095e-06
8.05223e-06
8.23188e-06
8.41554e-06
8.61458e-06
8.88485e-06
9.04422e-06
9.95635e-06
1.12313e-05
5.92576e-06
5.93e-06
5.93459e-06
5.93951e-06
5.94489e-06
5.95073e-06
5.95718e-06
5.96422e-06
5.97196e-06
5.98041e-06
5.98955e-06
5.99952e-06
6.01015e-06
6.02168e-06
6.0338e-06
6.04684e-06
6.06042e-06
6.07491e-06
6.08988e-06
6.10573e-06
6.12204e-06
6.13919e-06
6.15681e-06
6.17524e-06
6.19422e-06
6.21395e-06
6.23436e-06
6.25549e-06
6.27747e-06
6.30015e-06
6.32389e-06
6.34843e-06
6.3742e-06
6.40092e-06
6.42901e-06
6.45835e-06
6.4892e-06
6.52169e-06
6.55566e-06
6.5915e-06
6.62923e-06
6.66904e-06
6.71099e-06
6.75561e-06
6.80265e-06
6.85328e-06
6.90623e-06
6.96458e-06
7.02385e-06
7.09249e-06
7.15808e-06
7.24006e-06
7.3124e-06
7.41005e-06
7.49155e-06
7.60527e-06
7.70206e-06
7.82995e-06
7.95538e-06
8.09357e-06
8.26944e-06
8.42249e-06
8.64416e-06
8.86245e-06
9.03401e-06
9.579e-06
9.76438e-06
1.22101e-05
1.50839e-05
6.09304e-06
6.09821e-06
6.10391e-06
6.10999e-06
6.11657e-06
6.12369e-06
6.13134e-06
6.13967e-06
6.14863e-06
6.1584e-06
6.16878e-06
6.17996e-06
6.19177e-06
6.20435e-06
6.2176e-06
6.2316e-06
6.24631e-06
6.26168e-06
6.27783e-06
6.29463e-06
6.31219e-06
6.33035e-06
6.34929e-06
6.36876e-06
6.38914e-06
6.40984e-06
6.43175e-06
6.45388e-06
6.47747e-06
6.50126e-06
6.52667e-06
6.55244e-06
6.57983e-06
6.60794e-06
6.63758e-06
6.66867e-06
6.70085e-06
6.73577e-06
6.77106e-06
6.81037e-06
6.84998e-06
6.89399e-06
6.93881e-06
6.98824e-06
7.03886e-06
7.09493e-06
7.15241e-06
7.21695e-06
7.28165e-06
7.3579e-06
7.4294e-06
7.52111e-06
7.59976e-06
7.70924e-06
7.79855e-06
7.92655e-06
8.03522e-06
8.1829e-06
8.32767e-06
8.49585e-06
8.69933e-06
8.88873e-06
9.11625e-06
9.43072e-06
9.4929e-06
1.10166e-05
1.16055e-05
1.76073e-05
2.60351e-05
6.29631e-06
6.30215e-06
6.30858e-06
6.31554e-06
6.32305e-06
6.3312e-06
6.33983e-06
6.34922e-06
6.35915e-06
6.36996e-06
6.38134e-06
6.39359e-06
6.40638e-06
6.41999e-06
6.43414e-06
6.44901e-06
6.46447e-06
6.48053e-06
6.49736e-06
6.51471e-06
6.53295e-06
6.55172e-06
6.57141e-06
6.59152e-06
6.61284e-06
6.63442e-06
6.65744e-06
6.68073e-06
6.70537e-06
6.73056e-06
6.7571e-06
6.78445e-06
6.81324e-06
6.84333e-06
6.87474e-06
6.90812e-06
6.94246e-06
6.9798e-06
7.01761e-06
7.05982e-06
7.10233e-06
7.14993e-06
7.19889e-06
7.2528e-06
7.30935e-06
7.37128e-06
7.43597e-06
7.50693e-06
7.58059e-06
7.66413e-06
7.74646e-06
7.84668e-06
7.93867e-06
8.05805e-06
8.16545e-06
8.30782e-06
8.44193e-06
8.61575e-06
8.78911e-06
9.00076e-06
9.21176e-06
9.46061e-06
9.62092e-06
1.03507e-05
1.05254e-05
1.47742e-05
1.65403e-05
3.88969e-05
6.71753e-05
6.52661e-06
6.53334e-06
6.5408e-06
6.5488e-06
6.55749e-06
6.56688e-06
6.5769e-06
6.58772e-06
6.5991e-06
6.61132e-06
6.62412e-06
6.63768e-06
6.65179e-06
6.66657e-06
6.68193e-06
6.69811e-06
6.71493e-06
6.73241e-06
6.75057e-06
6.76918e-06
6.7886e-06
6.80839e-06
6.82918e-06
6.85034e-06
6.87263e-06
6.89542e-06
6.9194e-06
6.94401e-06
6.9699e-06
6.9966e-06
7.02466e-06
7.05405e-06
7.0846e-06
7.11709e-06
7.15076e-06
7.1867e-06
7.22422e-06
7.26438e-06
7.30679e-06
7.35195e-06
7.40025e-06
7.45135e-06
7.50664e-06
7.5652e-06
7.62852e-06
7.69683e-06
7.76955e-06
7.84914e-06
7.93311e-06
8.02663e-06
8.12304e-06
8.23507e-06
8.34723e-06
8.48088e-06
8.61813e-06
8.78255e-06
8.95474e-06
9.1598e-06
9.3594e-06
9.61109e-06
9.80047e-06
1.01894e-05
1.04518e-05
1.26606e-05
1.42101e-05
2.55976e-05
3.76468e-05
0.000101494
0.000198543
6.81224e-06
6.81987e-06
6.82796e-06
6.83662e-06
6.8458e-06
6.85566e-06
6.86611e-06
6.87728e-06
6.88915e-06
6.90172e-06
6.91497e-06
6.929e-06
6.94366e-06
6.95911e-06
6.97523e-06
6.9922e-06
7.00992e-06
7.02842e-06
7.04769e-06
7.06765e-06
7.08835e-06
7.10974e-06
7.13191e-06
7.15484e-06
7.17865e-06
7.20331e-06
7.22901e-06
7.25569e-06
7.28364e-06
7.31278e-06
7.34348e-06
7.37553e-06
7.40965e-06
7.44537e-06
7.48306e-06
7.52276e-06
7.56465e-06
7.60916e-06
7.65664e-06
7.70699e-06
7.76156e-06
7.81906e-06
7.88251e-06
7.94858e-06
8.0222e-06
8.09904e-06
8.18282e-06
8.27314e-06
8.36861e-06
8.47543e-06
8.58969e-06
8.71824e-06
8.86189e-06
9.01597e-06
9.19796e-06
9.38526e-06
9.59689e-06
9.81517e-06
1.00368e-05
1.03676e-05
1.07085e-05
1.20713e-05
1.38454e-05
1.96052e-05
2.91789e-05
5.94285e-05
0.000118207
0.000214727
0.000238584
7.14822e-06
7.1576e-06
7.16752e-06
7.17807e-06
7.18903e-06
7.20076e-06
7.21294e-06
7.22588e-06
7.23924e-06
7.25366e-06
7.26852e-06
7.28439e-06
7.30069e-06
7.31779e-06
7.33541e-06
7.35376e-06
7.37268e-06
7.39252e-06
7.4128e-06
7.43418e-06
7.45617e-06
7.4792e-06
7.50309e-06
7.52796e-06
7.55409e-06
7.58091e-06
7.60957e-06
7.63888e-06
7.67e-06
7.70217e-06
7.73629e-06
7.77172e-06
7.80928e-06
7.84847e-06
7.88982e-06
7.93416e-06
7.98068e-06
8.03133e-06
8.08464e-06
8.1421e-06
8.20411e-06
8.26984e-06
8.34282e-06
8.41939e-06
8.50425e-06
8.59321e-06
8.69134e-06
8.79741e-06
8.91276e-06
9.04266e-06
9.18506e-06
9.34117e-06
9.52292e-06
9.70265e-06
9.92025e-06
1.01188e-05
1.03565e-05
1.06344e-05
1.11513e-05
1.22943e-05
1.4072e-05
1.89629e-05
2.72271e-05
4.64841e-05
8.4768e-05
0.000152947
0.000188539
0.000200855
0.000201814
7.56652e-06
7.5758e-06
7.58588e-06
7.59653e-06
7.60777e-06
7.61985e-06
7.63254e-06
7.64601e-06
7.66023e-06
7.67534e-06
7.69102e-06
7.70776e-06
7.72502e-06
7.74334e-06
7.76234e-06
7.78223e-06
7.80306e-06
7.82464e-06
7.84756e-06
7.87099e-06
7.89602e-06
7.92158e-06
7.94889e-06
7.97617e-06
8.00575e-06
8.03513e-06
8.06732e-06
8.0993e-06
8.13462e-06
8.17003e-06
8.20902e-06
8.24859e-06
8.29177e-06
8.33617e-06
8.38421e-06
8.43439e-06
8.48832e-06
8.54561e-06
8.60689e-06
8.6727e-06
8.74428e-06
8.81922e-06
8.90535e-06
8.99257e-06
9.09496e-06
9.19768e-06
9.32177e-06
9.44778e-06
9.60225e-06
9.75727e-06
9.94514e-06
1.01222e-05
1.0338e-05
1.05379e-05
1.07886e-05
1.1106e-05
1.17283e-05
1.2849e-05
1.51719e-05
1.96726e-05
2.72976e-05
4.57563e-05
7.15428e-05
0.000118226
0.000140115
0.000156266
0.000168284
0.000172229
0.000160081
8.10812e-06
8.12103e-06
8.13417e-06
8.14803e-06
8.16204e-06
8.17688e-06
8.19188e-06
8.20777e-06
8.22387e-06
8.24098e-06
8.25833e-06
8.2768e-06
8.29555e-06
8.31551e-06
8.33584e-06
8.35745e-06
8.37961e-06
8.403e-06
8.42735e-06
8.45268e-06
8.47951e-06
8.5071e-06
8.53644e-06
8.56651e-06
8.59876e-06
8.6321e-06
8.66794e-06
8.70432e-06
8.74322e-06
8.78268e-06
8.8251e-06
8.86873e-06
8.91586e-06
8.96491e-06
9.01825e-06
9.07429e-06
9.13582e-06
9.20046e-06
9.27285e-06
9.34827e-06
9.4347e-06
9.52272e-06
9.62733e-06
9.73046e-06
9.85785e-06
9.97742e-06
1.01405e-05
1.02808e-05
1.04882e-05
1.06463e-05
1.08962e-05
1.10843e-05
1.14449e-05
1.18876e-05
1.27339e-05
1.41995e-05
1.6741e-05
2.11986e-05
3.01652e-05
4.69884e-05
6.789e-05
9.42498e-05
0.000105658
0.000114351
0.00012325
0.000135799
0.000142042
0.000141345
0.000127582
8.79404e-06
8.80659e-06
8.81985e-06
8.83396e-06
8.84833e-06
8.86398e-06
8.8799e-06
8.89691e-06
8.91444e-06
8.93325e-06
8.95268e-06
8.97327e-06
8.99462e-06
9.01687e-06
9.04018e-06
9.06431e-06
9.08963e-06
9.11609e-06
9.14355e-06
9.17263e-06
9.20257e-06
9.23452e-06
9.26704e-06
9.3022e-06
9.33821e-06
9.37691e-06
9.41689e-06
9.46105e-06
9.50637e-06
9.55634e-06
9.60746e-06
9.66323e-06
9.72071e-06
9.78282e-06
9.84795e-06
9.91927e-06
9.99443e-06
1.00773e-05
1.01687e-05
1.02665e-05
1.03722e-05
1.04809e-05
1.06048e-05
1.07237e-05
1.08772e-05
1.10131e-05
1.12109e-05
1.13692e-05
1.16734e-05
1.19986e-05
1.26301e-05
1.34289e-05
1.4818e-05
1.67202e-05
1.97089e-05
2.57607e-05
3.48147e-05
4.81886e-05
6.62357e-05
8.02254e-05
8.27458e-05
8.29918e-05
8.58296e-05
9.58639e-05
0.00010791
0.000117924
0.000121247
0.000118109
0.000105098
9.77098e-06
9.78838e-06
9.80586e-06
9.824e-06
9.84244e-06
9.86188e-06
9.88166e-06
9.90271e-06
9.92395e-06
9.94684e-06
9.96983e-06
9.99423e-06
1.00192e-05
1.00456e-05
1.00725e-05
1.01011e-05
1.0131e-05
1.0162e-05
1.01945e-05
1.02273e-05
1.02626e-05
1.02976e-05
1.03359e-05
1.03745e-05
1.04157e-05
1.04593e-05
1.05026e-05
1.05527e-05
1.05991e-05
1.06557e-05
1.07078e-05
1.07702e-05
1.08295e-05
1.08977e-05
1.09691e-05
1.10572e-05
1.11377e-05
1.12497e-05
1.13798e-05
1.15014e-05
1.16191e-05
1.17288e-05
1.18787e-05
1.20892e-05
1.23869e-05
1.27524e-05
1.32783e-05
1.4018e-05
1.54083e-05
1.7065e-05
1.91716e-05
2.18669e-05
2.54768e-05
3.05161e-05
3.85294e-05
4.72654e-05
5.98776e-05
6.40989e-05
5.88268e-05
5.34718e-05
5.66176e-05
6.47451e-05
7.46904e-05
8.55933e-05
9.61234e-05
0.000103648
0.000106207
0.000103809
9.36813e-05
1.14269e-05
1.14348e-05
1.1443e-05
1.14517e-05
1.14596e-05
1.14689e-05
1.14776e-05
1.14871e-05
1.14976e-05
1.15069e-05
1.15197e-05
1.15293e-05
1.15441e-05
1.15543e-05
1.15708e-05
1.15819e-05
1.15996e-05
1.16122e-05
1.16305e-05
1.16463e-05
1.16652e-05
1.16843e-05
1.17083e-05
1.17312e-05
1.17611e-05
1.17973e-05
1.18281e-05
1.18848e-05
1.19219e-05
1.20022e-05
1.20547e-05
1.21507e-05
1.22307e-05
1.23466e-05
1.24809e-05
1.2682e-05
1.2851e-05
1.32615e-05
1.37452e-05
1.41121e-05
1.4532e-05
1.49451e-05
1.60997e-05
1.73079e-05
1.85442e-05
1.9853e-05
2.12326e-05
2.26343e-05
2.36682e-05
2.49786e-05
2.62456e-05
2.88193e-05
3.28407e-05
3.99059e-05
4.36443e-05
3.12273e-05
2.46576e-05
2.52443e-05
3.00642e-05
3.69658e-05
4.60561e-05
5.55941e-05
6.54858e-05
7.55894e-05
8.53405e-05
9.34366e-05
9.78808e-05
9.85518e-05
9.2527e-05
1.19667e-05
1.20243e-05
1.20224e-05
1.20818e-05
1.20763e-05
1.21391e-05
1.21375e-05
1.21784e-05
1.21907e-05
1.22553e-05
1.223e-05
1.2304e-05
1.2307e-05
1.23198e-05
1.24029e-05
1.23893e-05
1.24749e-05
1.24534e-05
1.25451e-05
1.25212e-05
1.26277e-05
1.27548e-05
1.29247e-05
1.31524e-05
1.34594e-05
1.38349e-05
1.42872e-05
1.48205e-05
1.54301e-05
1.61321e-05
1.69105e-05
1.77961e-05
1.87942e-05
1.98482e-05
2.10016e-05
2.2224e-05
2.355e-05
2.49212e-05
2.62677e-05
2.76336e-05
2.86936e-05
2.99967e-05
2.93175e-05
2.86289e-05
2.75505e-05
2.62293e-05
2.45927e-05
2.28873e-05
2.10256e-05
1.78306e-05
1.26337e-05
7.99458e-06
8.32263e-06
8.79282e-06
8.47192e-06
6.14637e-06
6.05857e-06
8.44918e-06
1.26361e-05
1.91102e-05
2.78257e-05
3.80234e-05
4.83245e-05
5.8071e-05
6.77576e-05
7.60695e-05
8.2281e-05
8.53901e-05
8.48886e-05
4.6367e-05
4.73798e-05
4.83931e-05
4.94226e-05
5.04533e-05
5.14985e-05
5.25472e-05
5.36064e-05
5.46703e-05
5.57434e-05
5.68175e-05
5.78993e-05
5.89832e-05
6.00675e-05
6.11538e-05
6.22372e-05
6.3317e-05
6.43929e-05
6.54603e-05
6.65255e-05
6.75415e-05
6.84762e-05
6.93515e-05
7.01159e-05
7.07945e-05
7.13283e-05
7.1814e-05
7.17453e-05
7.15017e-05
7.10086e-05
7.02376e-05
6.92992e-05
6.89806e-05
6.5669e-05
6.44968e-05
6.19103e-05
5.94607e-05
5.58994e-05
5.13803e-05
4.56651e-05
3.86068e-05
2.95341e-05
1.97742e-05
1.05668e-05
3.94147e-06
1.99092e-06
2.11311e-06
2.76324e-06
3.01559e-06
2.95015e-06
2.71625e-06
2.02718e-06
1.6334e-06
1.48682e-06
1.42994e-06
1.42457e-06
1.72172e-06
2.36462e-06
3.37855e-06
4.79104e-06
6.63206e-06
8.90408e-06
1.16828e-05
1.52091e-05
1.87773e-05
2.20443e-05
2.4849e-05
2.69563e-05
2.83896e-05
4.70401e-06
4.70387e-06
4.70432e-06
4.70615e-06
4.70727e-06
4.70955e-06
4.71205e-06
4.71436e-06
4.71503e-06
4.71507e-06
4.71352e-06
4.71298e-06
4.71739e-06
4.72177e-06
4.72506e-06
4.72613e-06
4.72873e-06
4.73184e-06
4.73578e-06
4.73872e-06
4.74053e-06
4.74242e-06
4.74518e-06
4.74738e-06
4.75087e-06
4.75242e-06
4.75525e-06
4.75787e-06
4.76251e-06
4.76572e-06
4.76619e-06
4.77051e-06
4.77517e-06
4.77947e-06
4.78267e-06
4.78427e-06
4.78835e-06
4.79071e-06
4.79069e-06
4.7956e-06
4.79498e-06
4.79464e-06
4.7941e-06
4.79468e-06
4.79913e-06
4.80201e-06
4.80624e-06
4.80416e-06
4.80022e-06
4.79821e-06
4.79735e-06
4.79593e-06
4.79679e-06
4.79659e-06
4.79539e-06
4.79701e-06
4.79709e-06
4.79831e-06
4.80023e-06
4.73463e-06
4.73417e-06
4.73483e-06
4.73826e-06
4.73869e-06
4.74009e-06
4.74162e-06
4.74236e-06
4.73974e-06
4.73781e-06
4.73703e-06
4.74064e-06
4.74395e-06
4.74602e-06
4.74818e-06
4.74929e-06
4.75245e-06
4.75557e-06
4.75847e-06
4.76053e-06
4.76201e-06
4.76391e-06
4.76662e-06
4.76932e-06
4.77186e-06
4.77342e-06
4.77644e-06
4.7792e-06
4.78358e-06
4.78678e-06
4.78793e-06
4.79164e-06
4.79635e-06
4.80016e-06
4.80429e-06
4.80607e-06
4.80981e-06
4.81359e-06
4.81356e-06
4.81672e-06
4.8183e-06
4.8209e-06
4.82015e-06
4.81932e-06
4.82003e-06
4.82161e-06
4.82354e-06
4.82853e-06
4.82841e-06
4.8254e-06
4.82545e-06
4.825e-06
4.82505e-06
4.82508e-06
4.82478e-06
4.82364e-06
4.82504e-06
4.8257e-06
4.82569e-06
4.77278e-06
4.77337e-06
4.77486e-06
4.77766e-06
4.77591e-06
4.77421e-06
4.77184e-06
4.76888e-06
4.76639e-06
4.76583e-06
4.76847e-06
4.77072e-06
4.77177e-06
4.77371e-06
4.77475e-06
4.77656e-06
4.77944e-06
4.7817e-06
4.78365e-06
4.78523e-06
4.78677e-06
4.78877e-06
4.79146e-06
4.79396e-06
4.79596e-06
4.79769e-06
4.80068e-06
4.8037e-06
4.80788e-06
4.81113e-06
4.81281e-06
4.81603e-06
4.82077e-06
4.82475e-06
4.8285e-06
4.8307e-06
4.83415e-06
4.83875e-06
4.84016e-06
4.84173e-06
4.8432e-06
4.84564e-06
4.84958e-06
4.84926e-06
4.84938e-06
4.85069e-06
4.85167e-06
4.85421e-06
4.85816e-06
4.85792e-06
4.85683e-06
4.85843e-06
4.85883e-06
4.85862e-06
4.85723e-06
4.8584e-06
4.85878e-06
4.85797e-06
4.85784e-06
4.81941e-06
4.81756e-06
4.81541e-06
4.81274e-06
4.8093e-06
4.80573e-06
4.80215e-06
4.79911e-06
4.79717e-06
4.79678e-06
4.79956e-06
4.80131e-06
4.80232e-06
4.80336e-06
4.80486e-06
4.80673e-06
4.8085e-06
4.81027e-06
4.81149e-06
4.81298e-06
4.81464e-06
4.81675e-06
4.81911e-06
4.8212e-06
4.82289e-06
4.82478e-06
4.82771e-06
4.83093e-06
4.835e-06
4.83833e-06
4.84039e-06
4.8433e-06
4.84801e-06
4.85191e-06
4.85623e-06
4.85827e-06
4.86135e-06
4.86653e-06
4.86779e-06
4.87068e-06
4.87232e-06
4.87531e-06
4.87694e-06
4.87798e-06
4.87993e-06
4.88104e-06
4.88175e-06
4.88291e-06
4.88639e-06
4.88768e-06
4.88793e-06
4.88927e-06
4.89025e-06
4.89161e-06
4.89411e-06
4.89468e-06
4.89436e-06
4.89667e-06
4.89706e-06
4.86113e-06
4.85797e-06
4.85418e-06
4.85031e-06
4.84641e-06
4.84289e-06
4.83995e-06
4.8379e-06
4.83674e-06
4.8363e-06
4.83577e-06
4.83715e-06
4.83632e-06
4.83582e-06
4.83708e-06
4.83911e-06
4.84021e-06
4.84174e-06
4.84288e-06
4.84439e-06
4.8461e-06
4.84813e-06
4.85019e-06
4.85197e-06
4.8535e-06
4.85556e-06
4.85837e-06
4.86172e-06
4.86574e-06
4.86915e-06
4.87152e-06
4.87419e-06
4.87896e-06
4.88317e-06
4.88708e-06
4.88995e-06
4.89226e-06
4.89812e-06
4.90108e-06
4.90292e-06
4.90472e-06
4.90715e-06
4.91292e-06
4.91241e-06
4.91276e-06
4.9147e-06
4.91614e-06
4.91652e-06
4.91819e-06
4.9201e-06
4.9219e-06
4.92328e-06
4.92491e-06
4.9276e-06
4.92998e-06
4.93307e-06
4.93386e-06
4.93386e-06
4.93627e-06
4.90624e-06
4.90263e-06
4.89841e-06
4.89446e-06
4.89074e-06
4.88759e-06
4.88496e-06
4.8829e-06
4.88119e-06
4.87969e-06
4.8782e-06
4.87697e-06
4.87577e-06
4.87521e-06
4.87485e-06
4.87655e-06
4.87657e-06
4.87708e-06
4.87766e-06
4.87923e-06
4.88087e-06
4.88271e-06
4.88451e-06
4.88607e-06
4.88744e-06
4.88959e-06
4.8923e-06
4.89576e-06
4.8998e-06
4.90325e-06
4.90594e-06
4.90847e-06
4.91316e-06
4.91751e-06
4.92193e-06
4.92463e-06
4.92715e-06
4.93201e-06
4.93551e-06
4.93981e-06
4.94157e-06
4.94358e-06
4.94757e-06
4.95314e-06
4.95421e-06
4.95367e-06
4.95498e-06
4.95701e-06
4.95956e-06
4.96173e-06
4.96344e-06
4.96485e-06
4.96643e-06
4.9682e-06
4.97318e-06
4.97612e-06
4.97734e-06
4.98077e-06
4.98137e-06
4.95677e-06
4.95302e-06
4.94873e-06
4.94475e-06
4.94096e-06
4.93757e-06
4.93441e-06
4.93151e-06
4.92875e-06
4.92619e-06
4.9239e-06
4.92209e-06
4.92086e-06
4.92006e-06
4.91937e-06
4.9189e-06
4.91815e-06
4.91796e-06
4.91811e-06
4.91865e-06
4.92023e-06
4.92191e-06
4.92356e-06
4.92492e-06
4.92607e-06
4.92819e-06
4.93082e-06
4.93435e-06
4.93841e-06
4.94195e-06
4.94491e-06
4.94739e-06
4.95212e-06
4.95672e-06
4.96127e-06
4.9648e-06
4.96624e-06
4.97226e-06
4.97522e-06
4.98004e-06
4.9831e-06
4.98547e-06
4.98828e-06
4.99344e-06
4.99623e-06
4.99993e-06
5.00046e-06
5.00378e-06
5.00485e-06
5.00499e-06
5.00617e-06
5.00671e-06
5.00885e-06
5.01143e-06
5.01546e-06
5.01825e-06
5.02066e-06
5.02252e-06
5.0241e-06
5.0115e-06
5.00763e-06
5.00327e-06
4.99906e-06
4.99494e-06
4.99101e-06
4.98719e-06
4.98358e-06
4.9802e-06
4.97721e-06
4.97467e-06
4.97261e-06
4.97087e-06
4.96913e-06
4.96723e-06
4.96534e-06
4.96384e-06
4.96306e-06
4.96283e-06
4.96274e-06
4.96378e-06
4.96535e-06
4.96664e-06
4.96768e-06
4.96873e-06
4.97075e-06
4.97341e-06
4.977e-06
4.98113e-06
4.98468e-06
4.98799e-06
4.99048e-06