/*--------------------------------*- C++ -*----------------------------------*\
| =========                 |                                                 |
| \\      /  F ield         | OpenFOAM: The Open Source CFD Toolbox           |
|  \\    /   O peration     | Version:  2312                                  |
|   \\  /    A nd           | Website:  www.openfoam.com                      |
|    \\/     M anipulation  |                                                 |
\*---------------------------------------------------------------------------*/
FoamFile
{
    version     2.0;
    format      ascii;
    arch        "LSB;label=32;scalar=64";
    class       volScalarField;
    location    "1300";
    object      nut;
}
// * * * * * * * * * * * * * * * * * * * * * * * * * * * * * * * * * * * * * //

dimensions      [0 2 -1 0 0 0 0];

internalField   nonuniform List<scalar> 
76025
(
6.58274e-05
6.4941e-05
6.4734e-05
6.58879e-05
6.47125e-05
6.56149e-05
6.57804e-05
6.5459e-05
6.62799e-05
6.61617e-05
6.61573e-05
6.59e-05
6.60052e-05
6.53597e-05
6.71584e-05
6.5904e-05
6.75929e-05
6.64996e-05
6.85376e-05
6.7036e-05
6.71252e-05
6.80115e-05
6.85381e-05
6.90321e-05
7.06576e-05
6.95102e-05
7.16702e-05
7.13963e-05
7.18098e-05
7.53665e-05
7.48939e-05
7.17648e-05
7.47861e-05
7.46703e-05
7.75165e-05
7.69249e-05
7.55922e-05
7.70036e-05
7.59714e-05
7.76613e-05
7.70798e-05
7.41993e-05
7.42881e-05
7.48167e-05
7.48317e-05
7.36993e-05
7.25908e-05
7.31064e-05
7.24697e-05
7.19577e-05
7.10889e-05
6.94011e-05
6.84012e-05
6.76712e-05
6.77532e-05
6.71794e-05
6.56673e-05
6.45455e-05
6.37099e-05
6.24094e-05
6.08715e-05
5.82869e-05
5.75401e-05
5.55025e-05
5.40386e-05
5.31572e-05
4.99183e-05
4.69141e-05
4.715e-05
6.15565e-05
6.0781e-05
6.08446e-05
6.11497e-05
6.13377e-05
6.14026e-05
6.17485e-05
6.18414e-05
6.19747e-05
6.2205e-05
6.23822e-05
6.25759e-05
6.29072e-05
6.2898e-05
6.3046e-05
6.32573e-05
6.3372e-05
6.36417e-05
6.38215e-05
6.42917e-05
6.43896e-05
6.46634e-05
6.50362e-05
6.53299e-05
6.57408e-05
6.63051e-05
6.67255e-05
6.73426e-05
6.76686e-05
6.76523e-05
6.79308e-05
6.84786e-05
6.88588e-05
6.96815e-05
6.98299e-05
6.9873e-05
6.96886e-05
6.95354e-05
7.02167e-05
7.01777e-05
6.9769e-05
6.91727e-05
6.8871e-05
6.8985e-05
6.85054e-05
6.79802e-05
6.76392e-05
6.78231e-05
6.75695e-05
6.71664e-05
6.67768e-05
6.61329e-05
6.58443e-05
6.5536e-05
6.5156e-05
6.45787e-05
6.41937e-05
6.36401e-05
6.28411e-05
6.12159e-05
5.99483e-05
5.90803e-05
5.82762e-05
5.64926e-05
5.51532e-05
5.35016e-05
5.15315e-05
4.97927e-05
4.81863e-05
5.71182e-05
5.65328e-05
5.66349e-05
5.67318e-05
5.69359e-05
5.70943e-05
5.72631e-05
5.7412e-05
5.75473e-05
5.77263e-05
5.79265e-05
5.81518e-05
5.84152e-05
5.86789e-05
5.88058e-05
5.90504e-05
5.91358e-05
5.93719e-05
5.94715e-05
5.96817e-05
5.99467e-05
6.01907e-05
6.04456e-05
6.07676e-05
6.10383e-05
6.13457e-05
6.16162e-05
6.19032e-05
6.21576e-05
6.23368e-05
6.24979e-05
6.29224e-05
6.32331e-05
6.35676e-05
6.37804e-05
6.38269e-05
6.39856e-05
6.39591e-05
6.40358e-05
6.40989e-05
6.38893e-05
6.36646e-05
6.354e-05
6.3532e-05
6.35589e-05
6.34915e-05
6.34923e-05
6.35572e-05
6.36031e-05
6.34236e-05
6.32674e-05
6.28556e-05
6.26097e-05
6.22689e-05
6.21112e-05
6.16158e-05
6.1262e-05
6.05781e-05
5.99636e-05
5.89046e-05
5.80013e-05
5.69704e-05
5.61675e-05
5.49367e-05
5.3761e-05
5.22674e-05
5.06123e-05
4.89692e-05
4.66766e-05
5.34045e-05
5.28697e-05
5.30225e-05
5.31821e-05
5.33118e-05
5.34624e-05
5.36124e-05
5.37803e-05
5.39648e-05
5.41759e-05
5.44177e-05
5.46772e-05
5.48952e-05
5.5116e-05
5.52895e-05
5.55035e-05
5.5709e-05
5.59648e-05
5.61964e-05
5.64431e-05
5.66901e-05
5.69406e-05
5.72585e-05
5.75212e-05
5.77576e-05
5.79938e-05
5.8295e-05
5.85529e-05
5.88265e-05
5.9061e-05
5.94313e-05
5.97236e-05
5.99852e-05
6.0109e-05
6.01633e-05
6.02137e-05
6.03601e-05
6.04827e-05
6.06568e-05
6.0838e-05
6.10147e-05
6.11218e-05
6.1265e-05
6.13971e-05
6.15691e-05
6.16303e-05
6.17268e-05
6.17542e-05
6.18169e-05
6.16941e-05
6.16104e-05
6.13425e-05
6.11909e-05
6.08872e-05
6.07144e-05
6.02713e-05
5.9979e-05
5.93959e-05
5.89632e-05
5.81428e-05
5.75456e-05
5.67044e-05
5.61375e-05
5.51004e-05
5.41692e-05
5.2801e-05
5.13859e-05
4.98084e-05
4.73464e-05
5.00999e-05
4.95436e-05
4.97046e-05
4.98797e-05
5.00082e-05
5.01547e-05
5.03298e-05
5.05277e-05
5.07041e-05
5.08692e-05
5.1077e-05
5.13016e-05
5.15271e-05
5.17895e-05
5.20793e-05
5.23206e-05
5.25524e-05
5.27439e-05
5.29762e-05
5.32487e-05
5.35023e-05
5.37843e-05
5.40651e-05
5.43474e-05
5.46401e-05
5.4927e-05
5.52356e-05
5.55586e-05
5.58641e-05
5.61977e-05
5.64664e-05
5.68766e-05
5.70056e-05
5.73899e-05
5.7416e-05
5.74673e-05
5.76604e-05
5.78711e-05
5.81187e-05
5.8353e-05
5.8603e-05
5.87975e-05
5.90157e-05
5.91819e-05
5.93815e-05
5.94888e-05
5.96309e-05
5.96741e-05
5.97611e-05
5.96936e-05
5.96728e-05
5.9483e-05
5.93872e-05
5.91196e-05
5.89932e-05
5.86455e-05
5.84666e-05
5.80309e-05
5.77917e-05
5.72495e-05
5.69474e-05
5.63543e-05
5.59924e-05
5.52003e-05
5.45163e-05
5.32916e-05
5.19857e-05
5.04683e-05
4.75519e-05
4.70009e-05
4.64502e-05
4.6554e-05
4.67177e-05
4.68676e-05
4.70194e-05
4.72153e-05
4.73842e-05
4.7531e-05
4.77022e-05
4.79009e-05
4.8142e-05
4.84185e-05
4.86528e-05
4.88818e-05
4.91313e-05
4.94017e-05
4.97146e-05
4.99757e-05
5.01994e-05
5.04564e-05
5.07238e-05
5.10371e-05
5.1344e-05
5.16794e-05
5.20397e-05
5.2354e-05
5.27665e-05
5.30986e-05
5.34453e-05
5.37708e-05
5.40163e-05
5.42218e-05
5.4478e-05
5.47342e-05
5.49764e-05
5.52858e-05
5.55918e-05
5.59139e-05
5.62065e-05
5.65135e-05
5.67679e-05
5.70372e-05
5.72443e-05
5.74733e-05
5.76178e-05
5.77841e-05
5.78499e-05
5.79472e-05
5.79177e-05
5.79326e-05
5.78088e-05
5.77723e-05
5.75888e-05
5.75453e-05
5.73186e-05
5.72758e-05
5.70091e-05
5.69708e-05
5.66642e-05
5.66109e-05
5.62559e-05
5.61346e-05
5.5584e-05
5.51535e-05
5.41131e-05
5.29605e-05
5.15785e-05
4.87381e-05
4.40114e-05
4.351e-05
4.36117e-05
4.37937e-05
4.39308e-05
4.40795e-05
4.42049e-05
4.43602e-05
4.4511e-05
4.4696e-05
4.48901e-05
4.51208e-05
4.53558e-05
4.56371e-05
4.5891e-05
4.62062e-05
4.64702e-05
4.67547e-05
4.70294e-05
4.72406e-05
4.74904e-05
4.78076e-05
4.8145e-05
4.8499e-05
4.891e-05
4.9273e-05
4.9695e-05
5.01074e-05
5.04625e-05
5.09411e-05
5.13046e-05
5.1597e-05
5.18417e-05
5.21123e-05
5.24106e-05
5.2728e-05
5.30866e-05
5.34396e-05
5.38057e-05
5.41383e-05
5.44794e-05
5.47717e-05
5.5071e-05
5.53108e-05
5.55607e-05
5.57376e-05
5.59257e-05
5.60309e-05
5.61568e-05
5.61892e-05
5.62578e-05
5.6226e-05
5.6266e-05
5.61956e-05
5.62468e-05
5.61572e-05
5.62451e-05
5.61477e-05
5.6283e-05
5.6192e-05
5.63527e-05
5.62701e-05
5.63782e-05
5.61867e-05
5.60171e-05
5.53603e-05
5.4451e-05
5.32072e-05
5.07933e-05
4.11941e-05
4.07677e-05
4.08869e-05
4.10516e-05
4.1189e-05
4.13545e-05
4.15145e-05
4.16814e-05
4.1854e-05
4.20397e-05
4.22435e-05
4.24868e-05
4.2656e-05
4.28988e-05
4.30923e-05
4.33459e-05
4.36049e-05
4.39032e-05
4.42131e-05
4.45283e-05
4.48619e-05
4.52533e-05
4.56216e-05
4.59472e-05
4.62731e-05
4.66064e-05
4.69702e-05
4.73441e-05
4.7729e-05
4.81255e-05
4.8531e-05
4.89394e-05
4.93736e-05
4.97498e-05
5.01195e-05
5.05221e-05
5.09343e-05
5.13328e-05
5.17383e-05
5.21134e-05
5.249e-05
5.28272e-05
5.31624e-05
5.34508e-05
5.37354e-05
5.39667e-05
5.41936e-05
5.43642e-05
5.45357e-05
5.46497e-05
5.47766e-05
5.4845e-05
5.49533e-05
5.49964e-05
5.51242e-05
5.51602e-05
5.53464e-05
5.53907e-05
5.56702e-05
5.57524e-05
5.61353e-05
5.62989e-05
5.67207e-05
5.6945e-05
5.71387e-05
5.71562e-05
5.63932e-05
5.60172e-05
5.29362e-05
3.84809e-05
3.81082e-05
3.82564e-05
3.84301e-05
3.85767e-05
3.87319e-05
3.88824e-05
3.90419e-05
3.92077e-05
3.93824e-05
3.95802e-05
3.9794e-05
4.00722e-05
4.03075e-05
4.05513e-05
4.07978e-05
4.10107e-05
4.12699e-05
4.15622e-05
4.18783e-05
4.22132e-05
4.25657e-05
4.29259e-05
4.32884e-05
4.36594e-05
4.40411e-05
4.44395e-05
4.4852e-05
4.52812e-05
4.57223e-05
4.6179e-05
4.66439e-05
4.713e-05
4.75625e-05
4.79777e-05
4.8438e-05
4.89002e-05
4.93483e-05
4.97948e-05
5.02208e-05
5.06374e-05
5.10281e-05
5.14037e-05
5.17504e-05
5.20764e-05
5.23726e-05
5.26432e-05
5.28865e-05
5.31038e-05
5.32986e-05
5.34729e-05
5.36296e-05
5.37831e-05
5.39195e-05
5.40887e-05
5.42265e-05
5.44653e-05
5.46317e-05
5.50171e-05
5.52618e-05
5.58779e-05
5.62824e-05
5.71629e-05
5.7783e-05
5.87332e-05
5.94281e-05
5.94462e-05
6.00307e-05
5.7583e-05
3.60447e-05
3.56808e-05
3.57962e-05
3.5954e-05
3.61154e-05
3.62863e-05
3.64653e-05
3.66505e-05
3.68459e-05
3.70481e-05
3.72555e-05
3.7476e-05
3.77114e-05
3.79428e-05
3.8197e-05
3.84574e-05
3.87273e-05
3.90051e-05
3.93457e-05
3.96421e-05
3.98981e-05
4.01999e-05
4.05446e-05
4.09172e-05
4.13115e-05
4.1724e-05
4.2156e-05
4.26037e-05
4.30701e-05
4.35501e-05
4.40467e-05
4.45548e-05
4.50628e-05
4.55438e-05
4.60167e-05
4.65197e-05
4.70284e-05
4.75291e-05
4.80202e-05
4.85017e-05
4.89636e-05
4.94128e-05
4.98337e-05
5.02417e-05
5.06119e-05
5.09714e-05
5.12834e-05
5.15909e-05
5.18437e-05
5.21021e-05
5.23034e-05
5.25216e-05
5.26913e-05
5.28896e-05
5.30669e-05
5.328e-05
5.35355e-05
5.38166e-05
5.42689e-05
5.47024e-05
5.55164e-05
5.62411e-05
5.75932e-05
5.8784e-05
6.07074e-05
6.23651e-05
6.35895e-05
6.61022e-05
6.14675e-05
3.37365e-05
3.34147e-05
3.35626e-05
3.3729e-05
3.38859e-05
3.40465e-05
3.42067e-05
3.43824e-05
3.45698e-05
3.47766e-05
3.49891e-05
3.52196e-05
3.5459e-05
3.5712e-05
3.59751e-05
3.6256e-05
3.65541e-05
3.68482e-05
3.71706e-05
3.75475e-05
3.78729e-05
3.8174e-05
3.84721e-05
3.88292e-05
3.9229e-05
3.96581e-05
4.01124e-05
4.05879e-05
4.10824e-05
4.15956e-05
4.21246e-05
4.26753e-05
4.32016e-05
4.37182e-05
4.42541e-05
4.4804e-05
4.53548e-05
4.59065e-05
4.64422e-05
4.69743e-05
4.74816e-05
4.79822e-05
4.84483e-05
4.8906e-05
4.93186e-05
4.97236e-05
5.00712e-05
5.04186e-05
5.06962e-05
5.09884e-05
5.12013e-05
5.14494e-05
5.16191e-05
5.18493e-05
5.20228e-05
5.22862e-05
5.2549e-05
5.29283e-05
5.34297e-05
5.4051e-05
5.50325e-05
5.61194e-05
5.79398e-05
5.98903e-05
6.29344e-05
6.60677e-05
6.91477e-05
7.4245e-05
7.25097e-05
3.15219e-05
3.12282e-05
3.13612e-05
3.15284e-05
3.16796e-05
3.18424e-05
3.20112e-05
3.21837e-05
3.23797e-05
3.25825e-05
3.28086e-05
3.3042e-05
3.32896e-05
3.35603e-05
3.38473e-05
3.4121e-05
3.44587e-05
3.47712e-05
3.51298e-05
3.5526e-05
3.58158e-05
3.62081e-05
3.65214e-05
3.68931e-05
3.73096e-05
3.77606e-05
3.82379e-05
3.87404e-05
3.92629e-05
3.98068e-05
4.03677e-05
4.09529e-05
4.15076e-05
4.20571e-05
4.26463e-05
4.32422e-05
4.38355e-05
4.44316e-05
4.50131e-05
4.559e-05
4.61434e-05
4.66846e-05
4.71954e-05
4.76864e-05
4.81398e-05
4.85686e-05
4.89505e-05
4.93119e-05
4.96147e-05
4.99134e-05
5.0141e-05
5.03928e-05
5.05689e-05
5.08069e-05
5.09845e-05
5.12706e-05
5.15438e-05
5.19817e-05
5.25178e-05
5.32814e-05
5.43968e-05
5.5828e-05
5.80906e-05
6.0866e-05
6.49947e-05
7.00845e-05
7.52147e-05
8.10551e-05
7.63321e-05
2.95283e-05
2.92565e-05
2.93977e-05
2.95604e-05
2.97283e-05
2.98947e-05
3.00854e-05
3.02681e-05
3.0483e-05
3.06948e-05
3.09386e-05
3.11828e-05
3.14421e-05
3.17317e-05
3.20028e-05
3.23249e-05
3.26305e-05
3.30011e-05
3.33286e-05
3.3685e-05
3.40384e-05
3.43614e-05
3.46784e-05
3.50636e-05
3.54986e-05
3.59724e-05
3.64745e-05
3.70043e-05
3.75555e-05
3.81308e-05
3.87244e-05
3.9333e-05
3.99235e-05
4.05198e-05
4.11488e-05
4.17881e-05
4.24245e-05
4.30615e-05
4.36873e-05
4.43039e-05
4.49012e-05
4.54774e-05
4.60297e-05
4.65481e-05
4.70395e-05
4.7486e-05
4.79019e-05
4.82709e-05
4.86029e-05
4.8901e-05
4.91519e-05
4.93979e-05
4.95901e-05
4.98193e-05
5.00044e-05
5.0279e-05
5.0552e-05
5.09875e-05
5.15356e-05
5.23625e-05
5.35824e-05
5.52439e-05
5.78427e-05
6.1033e-05
6.58088e-05
7.18845e-05
7.81631e-05
7.55271e-05
7.02857e-05
2.76184e-05
2.73685e-05
2.75044e-05
2.76605e-05
2.78218e-05
2.79859e-05
2.81683e-05
2.83506e-05
2.85534e-05
2.87612e-05
2.89884e-05
2.92227e-05
2.94696e-05
2.97336e-05
3.00037e-05
3.02952e-05
3.05977e-05
3.09228e-05
3.12591e-05
3.16174e-05
3.19961e-05
3.23951e-05
3.28183e-05
3.32684e-05
3.37473e-05
3.42527e-05
3.47849e-05
3.53415e-05
3.59229e-05
3.65274e-05
3.71592e-05
3.77839e-05
3.84078e-05
3.90609e-05
3.97297e-05
4.04107e-05
4.10916e-05
4.17718e-05
4.24424e-05
4.31026e-05
4.37433e-05
4.43617e-05
4.4953e-05
4.55099e-05
4.60344e-05
4.65148e-05
4.69574e-05
4.73544e-05
4.77064e-05
4.80246e-05
4.82862e-05
4.8541e-05
4.87285e-05
4.89485e-05
4.91056e-05
4.93466e-05
4.95739e-05
4.99681e-05
5.04895e-05
5.13204e-05
5.25394e-05
5.41917e-05
5.65405e-05
5.91983e-05
6.29997e-05
6.83611e-05
7.26314e-05
6.92123e-05
6.52859e-05
2.5848e-05
2.56187e-05
2.57452e-05
2.58941e-05
2.6043e-05
2.62007e-05
2.63703e-05
2.65474e-05
2.67384e-05
2.69417e-05
2.71599e-05
2.73908e-05
2.76362e-05
2.7897e-05
2.81738e-05
2.84687e-05
2.87827e-05
2.91169e-05
2.9473e-05
2.98504e-05
3.02521e-05
3.06765e-05
3.1127e-05
3.16019e-05
3.21046e-05
3.26326e-05
3.31889e-05
3.37703e-05
3.43797e-05
3.50134e-05
3.56777e-05
3.633e-05
3.69894e-05
3.76928e-05
3.84083e-05
3.91336e-05
3.98625e-05
4.05914e-05
4.13103e-05
4.20213e-05
4.27087e-05
4.33786e-05
4.40124e-05
4.4621e-05
4.51805e-05
4.57109e-05
4.61782e-05
4.66207e-05
4.69829e-05
4.7337e-05
4.75871e-05
4.78598e-05
4.80029e-05
4.82136e-05
4.82909e-05
4.85004e-05
4.86423e-05
4.90021e-05
4.94546e-05
5.01568e-05
5.10714e-05
5.20039e-05
5.30391e-05
5.38891e-05
5.57611e-05
6.08892e-05
6.583e-05
6.37995e-05
5.87747e-05
2.41866e-05
2.39783e-05
2.40995e-05
2.42432e-05
2.43859e-05
2.45388e-05
2.47023e-05
2.48757e-05
2.50626e-05
2.5264e-05
2.54808e-05
2.57123e-05
2.596e-05
2.62239e-05
2.65063e-05
2.68072e-05
2.7129e-05
2.7471e-05
2.78361e-05
2.82232e-05
2.86358e-05
2.90722e-05
2.95362e-05
3.00259e-05
3.05453e-05
3.10915e-05
3.16691e-05
3.22738e-05
3.29108e-05
3.35757e-05
3.42617e-05
3.49503e-05
3.56656e-05
3.64128e-05
3.71823e-05
3.79598e-05
3.87461e-05
3.95318e-05
4.03131e-05
4.10833e-05
4.18335e-05
4.25617e-05
4.3254e-05
4.39159e-05
4.45261e-05
4.51014e-05
4.56074e-05
4.60824e-05
4.64644e-05
4.68319e-05
4.70722e-05
4.73335e-05
4.74316e-05
4.76155e-05
4.7632e-05
4.78277e-05
4.79077e-05
4.81974e-05
4.83892e-05
4.84973e-05
4.83145e-05
4.75123e-05
4.65901e-05
4.60696e-05
4.80736e-05
5.76723e-05
5.85194e-05
5.8309e-05
3.35652e-05
2.26815e-05
2.24935e-05
2.2612e-05
2.27525e-05
2.28921e-05
2.30423e-05
2.32027e-05
2.33733e-05
2.35573e-05
2.37564e-05
2.39707e-05
2.42011e-05
2.44474e-05
2.47117e-05
2.49939e-05
2.52966e-05
2.56192e-05
2.59648e-05
2.63326e-05
2.67256e-05
2.71433e-05
2.75887e-05
2.80615e-05
2.85644e-05
2.90973e-05
2.96624e-05
3.02601e-05
3.0891e-05
3.15564e-05
3.22584e-05
3.29684e-05
3.36952e-05
3.44689e-05
3.52672e-05
3.60888e-05
3.69261e-05
3.77737e-05
3.86257e-05
3.94736e-05
4.03114e-05
4.11307e-05
4.19236e-05
4.26818e-05
4.33999e-05
4.40676e-05
4.46843e-05
4.52339e-05
4.57291e-05
4.61339e-05
4.64986e-05
4.67403e-05
4.69903e-05
4.70917e-05
4.72874e-05
4.73271e-05
4.75027e-05
4.74365e-05
4.72544e-05
4.65138e-05
4.50555e-05
4.30716e-05
4.06599e-05
3.94162e-05
4.05951e-05
4.81345e-05
5.69093e-05
5.10491e-05
2.88317e-05
2.18302e-05
2.12677e-05
2.10985e-05
2.12144e-05
2.13513e-05
2.1488e-05
2.16355e-05
2.17929e-05
2.19608e-05
2.21416e-05
2.23377e-05
2.25487e-05
2.27756e-05
2.30186e-05
2.32792e-05
2.35584e-05
2.38577e-05
2.41784e-05
2.45216e-05
2.48891e-05
2.52821e-05
2.57025e-05
2.61513e-05
2.66308e-05
2.71418e-05
2.76873e-05
2.82663e-05
2.88838e-05
2.95367e-05
3.0232e-05
3.09597e-05
3.17088e-05
3.24902e-05
3.33255e-05
3.41899e-05
3.50809e-05
3.59926e-05
3.69152e-05
3.78492e-05
3.87722e-05
3.96953e-05
4.05867e-05
4.14601e-05
4.22838e-05
4.30707e-05
4.37898e-05
4.44582e-05
4.50428e-05
4.55731e-05
4.60033e-05
4.64085e-05
4.6695e-05
4.70316e-05
4.72137e-05
4.74879e-05
4.74499e-05
4.72692e-05
4.63242e-05
4.46823e-05
4.20757e-05
3.90017e-05
3.63558e-05
3.4975e-05
3.70348e-05
4.76382e-05
4.98474e-05
5.00311e-05
2.53889e-05
2.09124e-05
2.5816e-05
2.00103e-05
1.98574e-05
1.99704e-05
2.01038e-05
2.02375e-05
2.0382e-05
2.05362e-05
2.07008e-05
2.08778e-05
2.10698e-05
2.12765e-05
2.14992e-05
2.17377e-05
2.19941e-05
2.22688e-05
2.25639e-05
2.28805e-05
2.32201e-05
2.3585e-05
2.39762e-05
2.43969e-05
2.48477e-05
2.53323e-05
2.58508e-05
2.64084e-05
2.70036e-05
2.7643e-05
2.83236e-05
2.90541e-05
2.98073e-05
3.05912e-05
3.14289e-05
3.23105e-05
3.32317e-05
3.41859e-05
3.51697e-05
3.61703e-05
3.71883e-05
3.81991e-05
3.92117e-05
4.01904e-05
4.11491e-05
4.20539e-05
4.29141e-05
4.37061e-05
4.44398e-05
4.50981e-05
4.57059e-05
4.62514e-05
4.67876e-05
4.72437e-05
4.76962e-05
4.78751e-05
4.77803e-05
4.68747e-05
4.51367e-05
4.22691e-05
3.88666e-05
3.54963e-05
3.3248e-05
3.32414e-05
3.81626e-05
4.92863e-05
4.64818e-05
3.61801e-05
2.35041e-05
2.06479e-05
3.06383e-05
5.50215e-05
1.8808e-05
1.86693e-05
1.8776e-05
1.89019e-05
1.90292e-05
1.91673e-05
1.93153e-05
1.94739e-05
1.96446e-05
1.98298e-05
2.00296e-05
2.02449e-05
2.04759e-05
2.07242e-05
2.09911e-05
2.12787e-05
2.15882e-05
2.19214e-05
2.22802e-05
2.2666e-05
2.3082e-05
2.35292e-05
2.40123e-05
2.45316e-05
2.50927e-05
2.56957e-05
2.6346e-05
2.70447e-05
2.77951e-05
2.8584e-05
2.94302e-05
3.03458e-05
3.13129e-05
3.23302e-05
3.33881e-05
3.44828e-05
3.56004e-05
3.67338e-05
3.78672e-05
3.89878e-05
4.00827e-05
4.11363e-05
4.21444e-05
4.30944e-05
4.39925e-05
4.48435e-05
4.56526e-05
4.64387e-05
4.71746e-05
4.78306e-05
4.82262e-05
4.81937e-05
4.7325e-05
4.54608e-05
4.24953e-05
3.89301e-05
3.54066e-05
3.28757e-05
3.22207e-05
3.55575e-05
4.74435e-05
4.37754e-05
3.80777e-05
2.5155e-05
1.98144e-05
2.48026e-05
3.90772e-05
6.57682e-05
0.000101435
1.78346e-05
1.77079e-05
1.78122e-05
1.79345e-05
1.80574e-05
1.81902e-05
1.83322e-05
1.84838e-05
1.86472e-05
1.88241e-05
1.90152e-05
1.92215e-05
1.94435e-05
1.96831e-05
1.99414e-05
2.02207e-05
2.05225e-05
2.0849e-05
2.12022e-05
2.15843e-05
2.19982e-05
2.24465e-05
2.29327e-05
2.34602e-05
2.40329e-05
2.46546e-05
2.53299e-05
2.60636e-05
2.68364e-05
2.76511e-05
2.85363e-05
2.94857e-05
3.05023e-05
3.15817e-05
3.27209e-05
3.39129e-05
3.51475e-05
3.6412e-05
3.76905e-05
3.89638e-05
4.02209e-05
4.14418e-05
4.26341e-05
4.37768e-05
4.48936e-05
4.59467e-05
4.69156e-05
4.77046e-05
4.81312e-05
4.79689e-05
4.68969e-05
4.47787e-05
4.17382e-05
3.82135e-05
3.5005e-05
3.27498e-05
3.24655e-05
3.59544e-05
4.44983e-05
4.06849e-05
3.56286e-05
2.39868e-05
1.89971e-05
2.13756e-05
3.0786e-05
4.39784e-05
6.60837e-05
0.000110973
0.000128981
1.67826e-05
1.66734e-05
1.67706e-05
1.68852e-05
1.70014e-05
1.71281e-05
1.72637e-05
1.7409e-05
1.7565e-05
1.77349e-05
1.79179e-05
1.8116e-05
1.83287e-05
1.85584e-05
1.88059e-05
1.90736e-05
1.93628e-05
1.96767e-05
2.00164e-05
2.03863e-05
2.0788e-05
2.1226e-05
2.17035e-05
2.22246e-05
2.27947e-05
2.34168e-05
2.4101e-05
2.48492e-05
2.56697e-05
2.65767e-05
2.75776e-05
2.8662e-05
2.9831e-05
3.10792e-05
3.24012e-05
3.37897e-05
3.52266e-05
3.67024e-05
3.81896e-05
3.96745e-05
4.11408e-05
4.25669e-05
4.39481e-05
4.52209e-05
4.63199e-05
4.70639e-05
4.72572e-05
4.66464e-05
4.50691e-05
4.25841e-05
3.94945e-05
3.63492e-05
3.38128e-05
3.24809e-05
3.34678e-05
3.92492e-05
4.02859e-05
3.61611e-05
3.21869e-05
2.09904e-05
1.73677e-05
1.8915e-05
2.6138e-05
3.32091e-05
5.08044e-05
7.63043e-05
9.60361e-05
0.000125913
0.00014202
1.62288e-05
1.61085e-05
1.61972e-05
1.6303e-05
1.64093e-05
1.65249e-05
1.66492e-05
1.67827e-05
1.69274e-05
1.70852e-05
1.72562e-05
1.74422e-05
1.76431e-05
1.78612e-05
1.80975e-05
1.83543e-05
1.86335e-05
1.89373e-05
1.92694e-05
1.9631e-05
2.00281e-05
2.0462e-05
2.09405e-05
2.14638e-05
2.20438e-05
2.2679e-05
2.33822e-05
2.41248e-05
2.49258e-05
2.58071e-05
2.67842e-05
2.7856e-05
2.90402e-05
3.03336e-05
3.17466e-05
3.32702e-05
3.48989e-05
3.6608e-05
3.83608e-05
4.01024e-05
4.17588e-05
4.3207e-05
4.43337e-05
4.48936e-05
4.47343e-05
4.36192e-05
4.16554e-05
3.90088e-05
3.62643e-05
3.38862e-05
3.25829e-05
3.29211e-05
3.67511e-05
3.78806e-05
3.44464e-05
3.06649e-05
2.62401e-05
1.75593e-05
1.60017e-05
1.79854e-05
2.25517e-05
2.90208e-05
4.12994e-05
5.53386e-05
6.86569e-05
9.51687e-05
0.000131346
0.000137505
0.000131548
1.5212e-05
1.51429e-05
1.52375e-05
1.5345e-05
1.54537e-05
1.55709e-05
1.56947e-05
1.58265e-05
1.59668e-05
1.61188e-05
1.6282e-05
1.64589e-05
1.66489e-05
1.68554e-05
1.70783e-05
1.73215e-05
1.75855e-05
1.78743e-05
1.819e-05
1.85358e-05
1.89163e-05
1.93342e-05
1.97966e-05
2.03071e-05
2.08768e-05
2.15137e-05
2.2239e-05
2.30674e-05
2.40148e-05
2.50785e-05
2.62699e-05
2.75908e-05
2.90544e-05
3.06553e-05
3.23911e-05
3.42282e-05
3.61217e-05
3.79646e-05
3.96317e-05
4.09131e-05
4.1645e-05
4.16284e-05
4.08761e-05
3.94013e-05
3.75392e-05
3.54878e-05
3.38643e-05
3.2957e-05
3.38935e-05
3.56603e-05
3.32514e-05
3.03781e-05
2.72965e-05
2.4401e-05
1.8176e-05
1.51279e-05
1.48205e-05
1.79234e-05
1.99577e-05
2.5375e-05
3.54926e-05
4.40746e-05
5.14902e-05
7.48114e-05
0.000117544
0.000127098
0.000128579
0.000127494
0.00011821
1.53768e-05
1.52298e-05
1.529e-05
1.53732e-05
1.54576e-05
1.55519e-05
1.56546e-05
1.57665e-05
1.58879e-05
1.60214e-05
1.61664e-05
1.63244e-05
1.64956e-05
1.66813e-05
1.68833e-05
1.7103e-05
1.73428e-05
1.76051e-05
1.78925e-05
1.82098e-05
1.85596e-05
1.8948e-05
1.93764e-05
1.98544e-05
2.03877e-05
2.09656e-05
2.15756e-05
2.22573e-05
2.30291e-05
2.39139e-05
2.49202e-05
2.60682e-05
2.73548e-05
2.87777e-05
3.02973e-05
3.18503e-05
3.33095e-05
3.45256e-05
3.53162e-05
3.55355e-05
3.52025e-05
3.45221e-05
3.39437e-05
3.39695e-05
3.36609e-05
3.13379e-05
2.92987e-05
2.68335e-05
2.44885e-05
2.19811e-05
2.00865e-05
1.65743e-05
1.43648e-05
1.36493e-05
1.46448e-05
1.55895e-05
1.74642e-05
2.24335e-05
3.056e-05
3.53289e-05
4.02314e-05
6.18287e-05
0.000101503
0.000113769
0.000119651
0.000122155
0.000120942
0.000116891
0.000106659
1.43672e-05
1.4354e-05
1.44562e-05
1.45581e-05
1.46599e-05
1.47696e-05
1.48857e-05
1.50099e-05
1.51426e-05
1.52879e-05
1.54447e-05
1.56159e-05
1.58019e-05
1.60053e-05
1.62268e-05
1.64704e-05
1.67378e-05
1.70313e-05
1.73551e-05
1.77149e-05
1.81235e-05
1.85851e-05
1.91142e-05
1.97106e-05
2.03948e-05
2.1187e-05
2.20804e-05
2.3077e-05
2.41432e-05
2.5298e-05
2.64927e-05
2.77502e-05
2.90232e-05
3.0334e-05
3.1661e-05
3.30457e-05
3.42562e-05
3.30942e-05
3.16769e-05
2.9846e-05
2.78459e-05
2.55826e-05
2.33876e-05
2.1244e-05
1.93427e-05
1.75175e-05
1.59896e-05
1.46493e-05
1.38935e-05
1.32107e-05
1.3056e-05
1.22075e-05
1.2262e-05
1.28128e-05
1.54719e-05
1.92851e-05
2.46469e-05
2.70616e-05
3.22629e-05
4.63183e-05
7.15884e-05
8.90642e-05
0.000102433
0.000110954
0.000115896
0.000117396
0.000116124
0.000112215
0.000102655
1.69135e-05
1.67422e-05
1.68304e-05
1.69529e-05
1.70717e-05
1.71989e-05
1.73337e-05
1.7478e-05
1.76346e-05
1.78026e-05
1.79906e-05
1.81899e-05
1.84159e-05
1.86551e-05
1.89286e-05
1.92204e-05
1.95538e-05
1.99104e-05
2.03052e-05
2.07285e-05
2.11584e-05
2.15883e-05
2.2009e-05
2.24077e-05
2.28076e-05
2.32506e-05
2.37789e-05
2.45156e-05
2.54523e-05
2.45757e-05
2.35252e-05
2.24439e-05
2.12536e-05
2.00421e-05
1.88069e-05
1.76239e-05
1.6374e-05
1.5406e-05
1.45007e-05
1.34607e-05
1.24873e-05
1.15373e-05
1.11508e-05
1.07516e-05
1.03396e-05
9.94757e-06
9.54951e-06
9.20269e-06
8.72755e-06
8.51624e-06
8.2243e-06
9.31711e-06
1.12514e-05
1.48485e-05
1.66956e-05
1.5642e-05
1.68473e-05
2.34043e-05
3.1805e-05
4.23571e-05
5.74579e-05
7.19504e-05
8.49191e-05
9.3861e-05
0.000100697
0.000104789
0.000106125
0.000103378
8.47056e-05
9.07619e-06
9.03995e-06
8.96157e-06
8.92723e-06
8.84682e-06
8.8144e-06
8.73615e-06
8.68671e-06
8.61681e-06
8.582e-06
8.48417e-06
8.45242e-06
8.37103e-06
8.29445e-06
8.26237e-06
8.16456e-06
8.12836e-06
8.02112e-06
7.98093e-06
7.8678e-06
7.80929e-06
7.73645e-06
7.65925e-06
7.59184e-06
7.54312e-06
7.50768e-06
7.48604e-06
7.47852e-06
7.48179e-06
7.5008e-06
7.52351e-06
7.55795e-06
7.60655e-06
7.63793e-06
7.67637e-06
7.70289e-06
7.73007e-06
7.73971e-06
7.70197e-06
7.63833e-06
7.47907e-06
7.38482e-06
6.83953e-06
6.3636e-06
5.87406e-06
5.42566e-06
4.97038e-06
4.71725e-06
4.54713e-06
4.19168e-06
4.00722e-06
3.22582e-06
4.58646e-06
5.5171e-06
5.38032e-06
3.61288e-06
3.28501e-06
4.42879e-06
6.6291e-06
1.07812e-05
1.75988e-05
2.79706e-05
3.93032e-05
4.7224e-05
5.54131e-05
6.18844e-05
6.63786e-05
6.85493e-05
6.90818e-05
5.45843e-06
5.57894e-06
5.70014e-06
5.78719e-06
5.85372e-06
5.92298e-06
5.99391e-06
6.06747e-06
6.14316e-06
6.2217e-06
6.30243e-06
6.38637e-06
6.47319e-06
6.56297e-06
6.65621e-06
6.75272e-06
6.85277e-06
6.95664e-06
7.06399e-06
7.17629e-06
7.2897e-06
7.40148e-06
7.51492e-06
7.62546e-06
7.73704e-06
7.84443e-06
7.95988e-06
8.02882e-06
8.09416e-06
8.14889e-06
8.19214e-06
8.23866e-06
8.38696e-06
8.19768e-06
8.26267e-06
7.98453e-06
7.73249e-06
7.3391e-06
6.8204e-06
6.13975e-06
5.26946e-06
4.10398e-06
2.80701e-06
1.53382e-06
5.84082e-07
2.99172e-07
3.19758e-07
4.20108e-07
4.60617e-07
4.5309e-07
4.19585e-07
3.15206e-07
2.55697e-07
2.34129e-07
2.26415e-07
2.26757e-07
2.75391e-07
3.79788e-07
5.44387e-07
7.73821e-07
1.07271e-06
1.44082e-06
1.88916e-06
2.45342e-06
3.02023e-06
3.53619e-06
3.97824e-06
4.31189e-06
4.54125e-06
8.27931e-05
8.41694e-05
8.31803e-05
8.45931e-05
8.50626e-05
8.39472e-05
8.13421e-05
7.98735e-05
8.03266e-05
8.07077e-05
8.16751e-05
8.13653e-05
7.92692e-05
7.68875e-05
7.66135e-05
7.83085e-05
7.74656e-05
7.6183e-05
7.48594e-05
7.39431e-05
7.40475e-05
7.48655e-05
7.32674e-05
7.15331e-05
7.15744e-05
7.13124e-05
6.98907e-05
6.96132e-05
7.03878e-05
6.93823e-05
6.81072e-05
6.81826e-05
6.8e-05
6.76465e-05
6.5842e-05
6.56962e-05
6.5605e-05
6.49547e-05
6.49155e-05
6.47541e-05
6.37791e-05
6.36905e-05
6.42675e-05
6.48439e-05
6.37162e-05
6.4197e-05
6.49906e-05
6.44579e-05
6.41264e-05
6.38757e-05
6.32255e-05
6.2069e-05
6.36213e-05
6.23906e-05
6.3578e-05
6.46635e-05
6.42672e-05
6.41777e-05
6.58015e-05
7.70864e-05
7.81784e-05
7.7522e-05
7.76396e-05
7.68117e-05
7.52451e-05
7.41521e-05
7.44385e-05
7.55081e-05
7.56875e-05
7.51654e-05
7.40711e-05
7.28007e-05
7.1573e-05
7.20643e-05
7.2224e-05
7.10353e-05
6.98847e-05
6.94816e-05
6.87674e-05
6.88642e-05
6.83434e-05
6.75112e-05
6.64024e-05
6.62453e-05
6.58134e-05
6.50474e-05
6.4263e-05
6.45997e-05
6.41006e-05
6.28659e-05
6.29995e-05
6.27673e-05
6.26786e-05
6.17505e-05
6.13126e-05
6.13835e-05
6.09244e-05
6.06376e-05
6.0239e-05
5.94699e-05
5.94781e-05
5.94914e-05
5.96186e-05
5.97761e-05
5.9449e-05
5.99513e-05
6.02676e-05
6.03292e-05
6.01214e-05
5.9801e-05
5.92718e-05
5.90538e-05
5.91227e-05
5.91468e-05
5.98293e-05
6.02919e-05
6.00016e-05
6.10523e-05
7.18425e-05
7.28553e-05
7.1816e-05
7.12175e-05
7.04057e-05
6.98274e-05
6.98272e-05
7.0264e-05
7.04732e-05
6.99433e-05
6.89768e-05
6.79467e-05
6.72017e-05
6.67468e-05
6.69872e-05
6.64289e-05
6.55301e-05
6.48438e-05
6.45557e-05
6.40332e-05
6.36455e-05
6.30036e-05
6.23074e-05
6.15426e-05
6.13433e-05
6.07424e-05
6.03031e-05
5.95149e-05
5.96499e-05
5.9156e-05
5.83061e-05
5.83033e-05
5.80812e-05
5.78384e-05
5.73881e-05
5.69501e-05
5.69033e-05
5.66865e-05
5.64609e-05
5.61772e-05
5.56472e-05
5.54109e-05
5.53595e-05
5.52302e-05
5.55182e-05
5.53967e-05
5.54497e-05
5.56764e-05
5.59816e-05
5.60944e-05
5.60202e-05
5.58828e-05
5.55842e-05
5.55132e-05
5.54497e-05
5.55333e-05
5.57143e-05
5.5444e-05
5.63945e-05
6.64372e-05
6.72593e-05
6.61866e-05
6.5747e-05
6.54386e-05
6.53657e-05
6.54227e-05
6.53444e-05
6.48879e-05
6.41008e-05
6.32893e-05
6.26721e-05
6.2338e-05
6.21629e-05
6.19803e-05
6.13155e-05
6.06916e-05
6.02787e-05
5.99656e-05
5.95175e-05
5.89666e-05
5.83664e-05
5.77448e-05
5.71766e-05
5.69366e-05
5.63486e-05
5.60008e-05
5.53602e-05
5.53221e-05
5.48868e-05
5.42782e-05
5.42018e-05
5.39438e-05
5.36685e-05
5.3382e-05
5.30246e-05
5.28808e-05
5.27599e-05
5.25872e-05
5.24236e-05
5.21304e-05
5.18919e-05
5.17336e-05
5.15916e-05
5.16921e-05
5.17361e-05
5.1736e-05
5.18038e-05
5.20062e-05
5.22004e-05
5.23118e-05
5.23748e-05
5.23489e-05
5.23059e-05
5.22707e-05
5.22031e-05
5.22002e-05
5.18831e-05
5.27224e-05
6.13291e-05
6.21597e-05
6.13285e-05
6.11326e-05
6.09781e-05
6.08363e-05
6.05876e-05
6.01491e-05
5.9545e-05
5.89175e-05
5.84163e-05
5.8131e-05
5.79297e-05
5.76819e-05
5.72621e-05
5.66911e-05
5.62508e-05
5.59432e-05
5.56305e-05
5.52102e-05
5.46754e-05
5.41117e-05
5.3571e-05
5.31318e-05
5.28634e-05
5.23509e-05
5.20442e-05
5.15146e-05
5.13723e-05
5.10138e-05
5.0533e-05
5.04149e-05
5.01661e-05
4.99183e-05
4.96957e-05
4.9419e-05
4.92348e-05
4.91331e-05
4.9006e-05
4.88725e-05
4.87046e-05
4.85466e-05
4.84479e-05
4.83009e-05
4.8267e-05
4.83147e-05
4.83546e-05
4.83868e-05
4.84773e-05
4.86179e-05
4.87648e-05
4.88882e-05
4.89812e-05
4.90457e-05
4.90782e-05
4.90859e-05
4.91026e-05
4.87566e-05
4.95242e-05
5.69368e-05
5.77759e-05
5.7053e-05
5.68568e-05
5.65947e-05
5.62669e-05
5.58458e-05
5.53601e-05
5.48811e-05
5.4487e-05
5.42055e-05
5.39913e-05
5.37391e-05
5.33774e-05
5.29101e-05
5.24807e-05
5.21511e-05
5.18689e-05
5.15467e-05
5.11366e-05
5.06423e-05
5.01314e-05
4.96736e-05
4.93197e-05
4.90375e-05
4.85999e-05
4.83275e-05
4.78782e-05
4.76885e-05
4.73886e-05
4.69929e-05
4.68505e-05
4.66365e-05
4.64175e-05
4.62423e-05
4.60231e-05
4.58454e-05
4.57381e-05
4.56366e-05
4.55512e-05
4.54389e-05
4.5337e-05
4.52654e-05
4.52104e-05
4.51551e-05
4.51429e-05
4.51806e-05
4.52348e-05
4.53053e-05
4.53962e-05
4.55033e-05
4.56139e-05
4.57201e-05
4.58138e-05
4.59211e-05
4.59811e-05
4.60463e-05
4.57782e-05
4.6494e-05
5.29456e-05
5.36945e-05
5.2962e-05
5.26863e-05
5.23346e-05
5.19522e-05
5.15526e-05
5.11736e-05
5.08475e-05
5.05828e-05
5.03488e-05
5.00903e-05
4.97631e-05
4.93734e-05
4.89788e-05
4.8648e-05
4.83706e-05
4.80865e-05
4.77528e-05
4.73434e-05
4.689e-05
4.64419e-05
4.60596e-05
4.57599e-05
4.54751e-05
4.50996e-05
4.48537e-05
4.447e-05
4.42649e-05
4.40103e-05
4.36815e-05
4.35271e-05
4.33493e-05
4.3159e-05
4.30107e-05
4.28451e-05
4.26793e-05
4.25919e-05
4.25038e-05
4.24439e-05
4.23743e-05
4.23083e-05
4.22587e-05
4.22342e-05
4.22053e-05
4.2216e-05
4.22325e-05
4.22942e-05
4.2347e-05
4.24013e-05
4.24758e-05
4.25543e-05
4.26509e-05
4.27499e-05
4.2857e-05
4.29352e-05
4.30357e-05
4.27983e-05
4.35013e-05
4.91143e-05
4.97516e-05
4.90261e-05
4.87326e-05
4.83932e-05
4.8064e-05
4.77535e-05
4.74743e-05
4.72233e-05
4.69814e-05
4.67188e-05
4.64142e-05
4.60716e-05
4.57227e-05
4.54046e-05
4.51271e-05
4.48595e-05
4.45666e-05
4.42303e-05
4.38375e-05
4.34246e-05
4.30377e-05
4.27148e-05
4.24481e-05
4.21708e-05
4.18466e-05
4.16216e-05
4.12924e-05
4.10891e-05
4.08698e-05
4.05959e-05
4.04381e-05
4.02871e-05
4.0124e-05