/*--------------------------------*- C++ -*----------------------------------*\
| =========                 |                                                 |
| \\      /  F ield         | OpenFOAM: The Open Source CFD Toolbox           |
|  \\    /   O peration     | Version:  2312                                  |
|   \\  /    A nd           | Website:  www.openfoam.com                      |
|    \\/     M anipulation  |                                                 |
\*---------------------------------------------------------------------------*/
FoamFile
{
    version     2.0;
    format      ascii;
    arch        "LSB;label=32;scalar=64";
    class       volScalarField;
    location    "1300";
    object      omega;
}
// * * * * * * * * * * * * * * * * * * * * * * * * * * * * * * * * * * * * * //

dimensions      [0 0 -1 0 0 0 0];

internalField   nonuniform List<scalar> 
76025
(
0.0289871
0.0289933
0.0289796
0.0289713
0.0289739
0.0289854
0.0290019
0.0290217
0.0290374
0.0290762
0.029086
0.0290768
0.0290778
0.0291146
0.0291296
0.029156
0.029182
0.0292032
0.0292285
0.0292538
0.0293487
0.029383
0.0294079
0.0294202
0.029395
0.0293922
0.0294063
0.0294612
0.0295412
0.0295281
0.0295857
0.0296083
0.0296396
0.0297357
0.0298055
0.0298893
0.0299828
0.0300343
0.0301668
0.0302601
0.0304286
0.0305677
0.030833
0.0310496
0.0314289
0.0317414
0.0321811
0.03254
0.0330928
0.0334157
0.0339731
0.0342763
0.0347516
0.0350114
0.0356073
0.0359043
0.0366043
0.0369923
0.0378266
0.0383014
0.0393518
0.0398931
0.0411531
0.0418826
0.0434468
0.04475
0.0462307
0.0486138
0.0500626
0.0292783
0.0293062
0.0293453
0.0293462
0.0293556
0.0293451
0.0293501
0.0293563
0.0293761
0.0293945
0.02941
0.0294189
0.0294346
0.0294558
0.0295018
0.0295422
0.0295675
0.0296279
0.0296477
0.0296377
0.0296497
0.0296882
0.0297382
0.0297935
0.0298422
0.0298907
0.0299459
0.0300056
0.0300734
0.0301306
0.0302238
0.0302757
0.0303989
0.0304835
0.0306453
0.0307786
0.0309547
0.0310669
0.0311911
0.0313148
0.031503
0.0316382
0.0318713
0.0320448
0.0323492
0.0325798
0.0329692
0.0332506
0.0336926
0.0339971
0.0345057
0.0348171
0.0354146
0.0357706
0.0364538
0.0368495
0.0376499
0.0380981
0.0390642
0.0396148
0.0408063
0.0415029
0.0430036
0.043903
0.045827
0.0469269
0.049407
0.0507339
0.0532422
0.0296523
0.0296648
0.0296612
0.0296777
0.0297031
0.0297379
0.029765
0.0297985
0.0298186
0.0298596
0.0299028
0.0299237
0.0299451
0.0299544
0.0299757
0.0299916
0.0300219
0.0300529
0.030116
0.030164
0.0301946
0.0302303
0.0302704
0.0303272
0.0303903
0.0304606
0.0305296
0.0305972
0.0306736
0.0307484
0.0308383
0.0309454
0.031061
0.0311848
0.031338
0.031524
0.0318031
0.032007
0.0321263
0.0322072
0.0323917
0.0325329
0.0327728
0.0329318
0.0332402
0.0334406
0.0338316
0.0340818
0.0345578
0.0348543
0.0354154
0.0357586
0.0364175
0.0368041
0.0375726
0.038009
0.0389132
0.0394183
0.0404965
0.0411023
0.042412
0.0431661
0.0447295
0.0457124
0.0475201
0.0488839
0.0510096
0.05278
0.0557094
0.0301749
0.0301806
0.0302055
0.0302038
0.0302056
0.0302096
0.0302412
0.0302716
0.0303072
0.0303505
0.0303996
0.0304672
0.0305158
0.0305714
0.0306212
0.030673
0.0307018
0.0307386
0.0307663
0.0308196
0.0308813
0.0309241
0.0309848
0.0310942
0.0311379
0.0311258
0.0311314
0.0311686
0.0312526
0.0313408
0.0314502
0.0316018
0.0317136
0.0319116
0.0320375
0.0322559
0.0324412
0.032661
0.0329292
0.0331387
0.0334002
0.0335978
0.0338294
0.0339553
0.0342129
0.0343724
0.0347585
0.0350105
0.0355195
0.0358368
0.0364516
0.0368194
0.037541
0.0379572
0.0387991
0.0392736
0.0402653
0.0408187
0.0420026
0.0426647
0.0440958
0.0449001
0.0466485
0.0476434
0.0497954
0.0511585
0.0536589
0.0558133
0.0586866
0.0307127
0.0307465
0.0307672
0.0307795
0.0307917
0.0308153
0.0308365
0.0308795
0.0309287
0.0309798
0.0310206
0.0310633
0.0311094
0.0311496
0.0311996
0.0312587
0.0313048
0.0313731
0.0314307
0.0315088
0.0315824
0.0316532
0.0317218
0.0317864
0.0318606
0.0319396
0.032004
0.0321034
0.0322546
0.032456
0.0325519
0.0325358
0.032596
0.0326782
0.0328247
0.0329463
0.0331411
0.0332787
0.0335074
0.0336535
0.0339193
0.0340846
0.0344111
0.0346275
0.0350426
0.0353165
0.0358195
0.0361377
0.0367263
0.0370856
0.0377696
0.0381742
0.03897
0.0394279
0.040358
0.0408822
0.0419767
0.0425871
0.0438871
0.0446159
0.0461751
0.0470716
0.0489495
0.0500822
0.0523765
0.0538098
0.0566595
0.0586029
0.0619811
0.0314926
0.0315015
0.0315389
0.0315337
0.0315271
0.0315273
0.0315304
0.0315517
0.0315956
0.0316526
0.0317111
0.0317767
0.0318159
0.0318926
0.0319816
0.0320284
0.0321232
0.032175
0.0322155
0.0322337
0.0322858
0.0323757
0.0324516
0.0325536
0.032659
0.0327478
0.0328944
0.0330022
0.0331522
0.0333401
0.0334698
0.0336455
0.0339347
0.0339612
0.0340192
0.0340509
0.0341961
0.0343134
0.0345544
0.0347253
0.0350408
0.0352542
0.0356414
0.0358954
0.0363585
0.0366544
0.0372014
0.0375411
0.0381814
0.0385672
0.0393126
0.0397489
0.0406158
0.0411105
0.042122
0.0426886
0.0438766
0.0445372
0.0459447
0.0467353
0.0484109
0.0493927
0.0513763
0.0526557
0.0550057
0.0567292
0.0595401
0.0620427
0.0652503
0.0322576
0.0323023
0.0323419
0.0323817
0.032426
0.0324517
0.0325217
0.0325822
0.0326247
0.0326433
0.0326571
0.0326711
0.032725
0.0327732
0.0328578
0.0329481
0.0330291
0.033084
0.0332295
0.0332854
0.0333469
0.0333854
0.033375
0.033456
0.0335652
0.0336978
0.0338739
0.0340044
0.0341939
0.0343628
0.0345298
0.0347516
0.0349555
0.0351298
0.035494
0.0357338
0.0358408
0.035945
0.0361114
0.0362694
0.0365672
0.0367688
0.0371591
0.0374063
0.0378943
0.0382041
0.0387963
0.0391617
0.0398583
0.0402746
0.0410838
0.0415534
0.0424924
0.0430244
0.0441193
0.0447293
0.0460159
0.046728
0.0482529
0.0491071
0.0509204
0.0519996
0.054127
0.0555864
0.0581001
0.0600244
0.0632718
0.0656528
0.0698562
0.0332954
0.0333337
0.033398
0.0334371
0.0334766
0.0335089
0.0335115
0.0335231
0.0335558
0.0336625
0.0337438
0.0338003
0.0338506
0.0338889
0.0339329
0.0340078
0.0340693
0.0341569
0.0342607
0.0343604
0.0344873
0.0346182
0.0347189
0.0348315
0.0348947
0.035015
0.0351056
0.0352615
0.0354151
0.0356108
0.0358199
0.0360426
0.0362672
0.0365817
0.0367959
0.0371246
0.0374633
0.0377652
0.0380777
0.0383671
0.0385901
0.0387653
0.039022
0.0391906
0.0396657
0.0399738
0.040606
0.0409927
0.0417452
0.0421883
0.0430623
0.0435621
0.0445768
0.0451446
0.0463299
0.0469844
0.0483811
0.0491494
0.0508125
0.0517395
0.0537278
0.0549118
0.0572261
0.058919
0.0614857
0.0640039
0.0669771
0.0703189
0.0744892
0.0343082
0.0343951
0.0344724
0.0345646
0.0346891
0.0348088
0.0349159
0.0348981
0.0349252
0.0349283
0.034978
0.0350191
0.035081
0.0351157
0.03518
0.0352497
0.0353227
0.0354417
0.0355926
0.0356543
0.0356643
0.0357473
0.0358426
0.0359787
0.0361126
0.0362802
0.0364353
0.0366003
0.0367587
0.0369237
0.0371153
0.0372982
0.0375334
0.0377397
0.038009
0.0382443
0.038546
0.0387674
0.039105
0.0393121
0.0397241
0.0399946
0.0405166
0.0408568
0.0414778
0.0418633
0.042578
0.0430049
0.0438255
0.0443001
0.0452472
0.0457811
0.0468824
0.047492
0.0487839
0.0494918
0.0510222
0.0518603
0.053695
0.0547079
0.056929
0.0581932
0.0608581
0.0625956
0.0656422
0.0682974
0.0716377
0.075672
0.0799984
0.0354342
0.0355391
0.0356039
0.0356376
0.0356895
0.0357876
0.0358504
0.0359619
0.0360187
0.0361439
0.0362212
0.0363749
0.0365037
0.0366637
0.036813
0.0369124
0.0371061
0.0372405
0.0373363
0.0375171
0.0375857
0.03755
0.0376026
0.0376798
0.0378455
0.0380724
0.0382449
0.0385616
0.0387487
0.0390704
0.0392853
0.0395979
0.0399666
0.040224
0.0405625
0.0411459
0.0410645
0.0415952
0.0414779
0.0414607
0.0418007
0.0420521
0.0425963
0.0429461
0.0436095
0.0440139
0.0447847
0.0452371
0.0461275
0.0466343
0.0476673
0.048242
0.0494498
0.050112
0.051537
0.0523139
0.0540119
0.0549415
0.056987
0.0581182
0.0606081
0.0620028
0.0650659
0.0668503
0.070581
0.0731163
0.0774301
0.0817722
0.0858559
0.0372289
0.0373064
0.0373734
0.037437
0.0375
0.0375587
0.0376083
0.0376621
0.0377146
0.0378485
0.037959
0.0380721
0.0381217
0.0382131
0.0383247
0.0384614
0.0385968
0.0387533
0.0388501
0.0390254
0.039119
0.0393121
0.0394158
0.0396621
0.0398123
0.0401066
0.0403443
0.0406092
0.0409882
0.0411871
0.0416054
0.0418248
0.0423627
0.0426192
0.0428936
0.0431476
0.0429588
0.0429146
0.0431847
0.0434062
0.0438944
0.0442277
0.0448465
0.0452384
0.0459658
0.046404
0.0472464
0.0477341
0.0487114
0.0492604
0.0504007
0.0510294
0.0523712
0.0531033
0.0546962
0.0555636
0.0574717
0.0585163
0.0608211
0.0620965
0.064902
0.0664876
0.0699299
0.0719646
0.0762577
0.0788876
0.084566
0.0880186
0.0950383
0.0388905
0.0389744
0.0390673
0.0391665
0.0393022
0.0394051
0.0395335
0.039639
0.0397363
0.0398863
0.0399864
0.0400683
0.0402579
0.0403351
0.0403609
0.0403979
0.0404525
0.0405978
0.040708
0.0409104
0.0410521
0.041275
0.0414461
0.0416741
0.0419361
0.042137
0.0424924
0.0427066
0.0430925
0.043355
0.0437323
0.0442033
0.0444488
0.0450527
0.0453769
0.0457597
0.0455409
0.0462858
0.0461028
0.0460895
0.0464835
0.0467988
0.047433
0.0478562
0.0486373
0.0491194
0.0500425
0.05058
0.0516654
0.0522732
0.0535508
0.0542537
0.0557651
0.0565906
0.0583926
0.0593747
0.0615367
0.0627199
0.0653336
0.0667786
0.0699664
0.0717725
0.0756718
0.0780932
0.0827794
0.0862809
0.0922037
0.0967511
0.105658
0.0410417
0.0411342
0.0412162
0.0412907
0.0413712
0.0414417
0.0415541
0.0416644
0.0418083
0.0419962
0.0422237
0.0424417
0.0426419
0.0427337
0.0428487
0.042916
0.0430533
0.043222
0.0434071
0.043615
0.0438832
0.0440808
0.0443718
0.0445361
0.0448559
0.0450123
0.0453804
0.0455718
0.0460135
0.0462465
0.0467725
0.0470769
0.0476511
0.048163
0.0483964
0.0492165
0.0488217
0.0496087
0.049245
0.0491577
0.049476
0.0498109
0.0504407
0.0509309
0.0517533
0.0523167
0.0533221
0.0539415
0.0551531
0.0558439
0.0572896
0.0580867
0.0598024
0.0607418
0.0627887
0.0639041
0.0663614
0.0677056
0.0706834
0.0723298
0.0759815
0.0780408
0.082592
0.0852564
0.0909305
0.0948874
0.10192
0.107588
0.119022
0.0437966
0.0439159
0.044077
0.0442106
0.0443376
0.0444739
0.0446009
0.044735
0.0449048
0.0450047
0.0451997
0.045407
0.0455317
0.0457057
0.0459195
0.0459994
0.0459827
0.0460588
0.0461823
0.0464551
0.0466699
0.0470022
0.0472296
0.0475934
0.0478227
0.0482318
0.0484742
0.0489503
0.0492167
0.0497773
0.0500734
0.0507318
0.0510724
0.0518229
0.0521527
0.0530779
0.0533948
0.0537839
0.0532143
0.0535799
0.0533632
0.053546
0.0540652
0.0546494
0.0554757
0.0561805
0.0572453
0.0580015
0.0593354
0.0601422
0.0617754
0.0626807
0.0646322
0.0656983
0.0680259
0.069293
0.072098
0.0736347
0.0770515
0.0789484
0.0831652
0.0855647
0.0908589
0.0940442
0.100775
0.105598
0.114078
0.122279
0.134358
0.0468398
0.0469923
0.0471357
0.047242
0.0473813
0.047451
0.0476018
0.0477212
0.0479792
0.048141
0.0484308
0.0487051
0.0489694
0.049261
0.0496025
0.049759
0.0499165
0.0499361
0.0499841
0.05014
0.0502414
0.0505909
0.0507863
0.0512316
0.0514727
0.0519894
0.0522593
0.0528463
0.0531411
0.0538116
0.0541439
0.05491
0.0552529
0.0561889
0.0565674
0.0570247
0.0563545
0.0573698
0.056841
0.0568123
0.0570971
0.0576731
0.0583148
0.0591141
0.0599722
0.0608775
0.06198
0.0629316
0.0643596
0.0653305
0.0671503
0.0681836
0.0704077
0.0716138
0.0742738
0.0757245
0.0789551
0.0807298
0.0846903
0.0869032
0.0918395
0.094687
0.101013
0.104878
0.113399
0.119057
0.131267
0.140615
0.161219
0.0509551
0.0511469
0.0514225
0.0515997
0.0518314
0.0520278
0.0522767
0.0523788
0.0526386
0.0527615
0.0530629
0.0532814
0.0534123
0.0537652
0.053899
0.053803
0.0537901
0.0539843
0.0541476
0.0544942
0.0547186
0.055141
0.0553883
0.0558588
0.0561167
0.0566363
0.0569128
0.0575009
0.0578096
0.0584915
0.0588515
0.0596554
0.060083
0.0610325
0.0614855
0.0626935
0.0631575
0.0636312
0.0629241
0.0631545
0.0628546
0.0631753
0.0637162
0.0645661
0.0654628
0.0665163
0.0676929
0.0688413
0.0703802
0.0715582
0.0735718
0.0747826
0.0773234
0.0786996
0.0817758
0.0834595
0.0872216
0.0892954
0.0939506
0.0965849
0.102495
0.106014
0.113813
0.118951
0.129737
0.138501
0.154551
0.170752
0.208815
0.0553798
0.0555133
0.0557526
0.0559255
0.0561361
0.0563422
0.0565347
0.0567277
0.056918
0.0571213
0.0573522
0.0575198
0.0577462
0.057887
0.0581539
0.0582835
0.0585831
0.0587465
0.0591211
0.0593473
0.0597964
0.0600683
0.0605841
0.0608913
0.0614832
0.0618116
0.0624855
0.0628472
0.0636225
0.064024
0.0649187
0.0653759
0.066404
0.0668859
0.068159
0.0686657
0.0692867
0.0683672
0.0698659
0.0691552
0.0691562
0.0696195
0.0703095
0.0712182
0.072269
0.073398
0.0747514
0.0760438
0.077781
0.0791537
0.0814136
0.0828285
0.0857319
0.0873176
0.0909098
0.0928816
0.0973142
0.0997997
0.105388
0.108663
0.116026
0.120705
0.130868
0.13853
0.153131
0.16832
0.191274
0.227455
0.290864
0.0609694
0.0612402
0.0613814
0.0616973
0.0619299
0.0622427
0.0626139
0.0628942
0.0631469
0.0632752
0.0634798
0.0636356
0.0638922
0.0641696
0.0644829
0.0648384
0.0651736
0.0656258
0.0659487
0.0663846
0.0667258
0.0671576
0.0675893
0.0679853
0.0684877
0.0690696
0.0695103
0.070167
0.0705366
0.0712772
0.0716586
0.0725806
0.073076
0.0742251
0.0748934
0.0761698
0.0772717
0.0778594
0.0798247
0.078853
0.0809464
0.0800379
0.0800582
0.0806567
0.0816252
0.0825631
0.0840779
0.0854342
0.0873607
0.0888959
0.0913659
0.0929261
0.0961839
0.0979835
0.102204
0.10454
0.109894
0.112999
0.120037
0.124474
0.134255
0.14133
0.155388
0.168785
0.190439
0.220194
0.265016
0.353215
0.528403
0.0681549
0.0684164
0.0686817
0.0689215
0.0692289
0.0695185
0.0699196
0.070204
0.0705508
0.0706918
0.0709588
0.0710471
0.0713393
0.0714721
0.0718449
0.0721682
0.0726817
0.0732176
0.0737621
0.074387
0.0749492
0.0755222
0.0761895
0.076768
0.0773361
0.0779671
0.0783999
0.0790466
0.0796703
0.0803148
0.0811141
0.0819857
0.0826196
0.0836599
0.0842283
0.0854767
0.086334
0.0877404
0.0893927
0.0903991
0.0928523
0.0941717
0.0958777
0.0972338
0.096441
0.096181
0.0980124
0.0990848
0.101007
0.102649
0.104778
0.106155
0.109447
0.111455
0.116463
0.119393
0.1262
0.1305
0.140135
0.147025
0.161177
0.173649
0.195205
0.222684
0.26266
0.333527
0.450743
0.686628
1.22089
0.0769395
0.0773117
0.0776106
0.0779978
0.0783021
0.0786672
0.0789976
0.0793202
0.0796713
0.0799776
0.0802597
0.0806172
0.08096
0.0815858
0.0820608
0.0823071
0.0826356
0.0828216
0.0832607
0.0836845
0.0842996
0.0849283
0.0856376
0.0864024
0.0871736
0.0879686
0.0888137
0.0896719
0.0905357
0.0915862
0.092442
0.0934535
0.0943955
0.0953818
0.0963473
0.0976333
0.0984944
0.0999626
0.100739
0.102531
0.103561
0.105773
0.107323
0.109805
0.112488
0.114093
0.118134
0.120079
0.122913
0.124916
0.12441
0.123851
0.126336
0.128967
0.135173
0.139504
0.149102
0.156353
0.170845
0.183796
0.206571
0.232766
0.274487
0.340068
0.444003
0.629224
0.960936
1.54321
1.95735
0.0876366
0.0877756
0.088126
0.0883987
0.0888311
0.0892186
0.089726
0.0901861
0.0907112
0.0912593
0.0919049
0.0924486
0.0932078
0.0937441
0.094522
0.0948964
0.0955549
0.0958075
0.0964757
0.0967404
0.0975491
0.0979203
0.0989146
0.099403
0.10058
0.101151
0.10249
0.103131
0.104646
0.105341
0.107074
0.107822
0.107468
0.10756
0.107766
0.108779
0.109867
0.111245
0.11291
0.114441
0.116541
0.11807
0.119954
0.121686
0.122943
0.125278
0.127139
0.129688
0.134539
0.138013
0.141868
0.143323
0.147159
0.153202
0.161824
0.171054
0.185782
0.201373
0.225555
0.254826
0.300559
0.364594
0.476892
0.647997
0.947798
1.35131
1.78875
1.85778
1.66352
0.102578
0.103015
0.103331
0.103769
0.104216
0.104705
0.105168
0.105937
0.106594
0.106852
0.10724
0.107362
0.107845
0.108191
0.108905
0.109505
0.11045
0.111074
0.112329
0.112947
0.11429
0.114989
0.116338
0.117138
0.118287
0.119584
0.120098
0.121716
0.122509
0.123335
0.12307
0.123375
0.123827
0.12482
0.126476
0.127876
0.130038
0.131248
0.134559
0.135888
0.141107
0.143037
0.145197
0.142194
0.145907
0.144239
0.144974
0.14802
0.151106
0.156267
0.161792
0.170798
0.179918
0.193697
0.208916
0.230222
0.257075
0.294085
0.346455
0.420815
0.544548
0.716156
1.04167
1.39974
1.66852
1.73414
1.6309
1.49384
1.42102
0.12172
0.122415
0.122936
0.123597
0.124281
0.124897
0.125566
0.126359
0.12689
0.127606
0.128429
0.128885
0.129623
0.129899
0.130668
0.131043
0.132031
0.132813
0.1332
0.134434
0.134142
0.133893
0.133933
0.13461
0.135029
0.136203
0.136764
0.138235
0.138873
0.14056
0.141291
0.143337
0.144329
0.146874
0.148244
0.151205
0.153249
0.156235
0.159718
0.161839
0.167035
0.169925
0.169762
0.173633
0.174916
0.17846
0.184736
0.190045
0.195946
0.203126
0.21484
0.229943
0.250332
0.278186
0.313198
0.362175
0.427144
0.52458
0.669532
0.871073
1.21045
1.57667
1.7323
1.68394
1.52739
1.29342
1.28122
1.25253
1.21691
0.146724
0.147054
0.147744
0.148112
0.148914
0.149377
0.150322
0.15088
0.151953
0.152591
0.153829
0.154506
0.155849
0.156554
0.157947
0.158703
0.160094
0.160988
0.162166
0.163408
0.164134
0.165833
0.166615
0.168627
0.169566
0.169521
0.169515
0.170219
0.170911
0.172536
0.173709
0.175853
0.177228
0.179711
0.181188
0.183974
0.185662
0.189073
0.191293
0.195821
0.199326
0.204965
0.212226
0.218123
0.2372
0.246766
0.274191
0.283787
0.283741
0.298549
0.327692
0.364879
0.419283
0.487176
0.581104
0.715897
0.880704
1.18273
1.51146
1.85176
1.91279
1.7965
1.47882
1.0754
1.04855
1.06846
1.1047
1.10863
1.07928
0.178567
0.179281
0.179916
0.180622
0.181667
0.182114
0.183306
0.184184
0.185109
0.18552
0.186157
0.186492
0.187099
0.187861
0.188494
0.189725
0.190433
0.191871
0.192807
0.194212
0.195452
0.196784
0.198712
0.199811
0.201841
0.203742
0.205678
0.206687
0.208328
0.20922
0.211222
0.212799
0.215527
0.218276
0.221201
0.224268
0.227938
0.231762
0.237594
0.243299
0.252876
0.262123
0.276982
0.297722
0.323141
0.351431
0.38264
0.423694
0.476687
0.545861
0.628787
0.738535
0.889282
1.04919
1.3458
1.65245
1.9935
2.14806
2.10009
1.88608
1.31003
0.887905
0.845584
0.842616
0.901871
0.965359
1.00252
1.01042
0.985365
0.229752
0.230421
0.231596
0.232362
0.233787
0.234574
0.236112
0.236989
0.238577
0.239472
0.240871
0.242467
0.243392
0.244971
0.247262
0.248294
0.24766
0.247651
0.248198
0.249588
0.250756
0.253352
0.254758
0.257555
0.259321
0.261859
0.264827
0.266684
0.271846
0.274282
0.281279
0.285977
0.297573
0.304454
0.309034
0.315553
0.32513
0.339929
0.359244
0.385358
0.417264
0.45847
0.507909
0.569063
0.640391
0.727981
0.830433
0.956904
1.09987
1.27829
1.46841
1.79126
2.0777
2.38169
2.49029
2.45088
2.31259
1.84983
1.15588
0.963315
0.790877
0.726948
0.729164
0.771433
0.829394
0.882893
0.914606
0.925095
0.912587
0.351957
0.353665
0.355604
0.357475
0.35948
0.361468
0.363532
0.365517
0.367692
0.369707
0.371984
0.374164
0.37646
0.378699
0.381235
0.383564
0.386309
0.389142
0.392415
0.39595
0.399747
0.404078
0.408431
0.413966
0.420839
0.429319
0.439662
0.452435
0.468404
0.488377
0.512416
0.541381
0.575465
0.616036
0.663635
0.719591
0.784841
0.8608
0.947902
1.04839
1.16374
1.29537
1.44381
1.6098
1.79351
1.99576
2.22343
2.45953
2.7119
2.93306
3.19123
3.09316
2.91882
2.68755
2.08871
1.58208
1.26506
1.07862
0.945267
0.872717
0.801562
0.772672
0.771155
0.805334
0.847502
0.891661
0.922319
0.937059
0.932215
1.31848
1.33013
1.34155
1.35337
1.36504
1.37719
1.38935
1.40195
1.41475
1.42803
1.44151
1.45568
1.47019
1.4853
1.50113
1.51744
1.53474
1.55258
1.57188
1.59145
1.61701
1.64867
1.68747
1.73244
1.78433
1.84277
1.90851
1.98174
2.06235
2.15071
2.24769
2.35462
2.47079
2.59864
2.73588
2.88515
3.04655
3.21992
3.41052
3.61776
3.83651
4.06194
4.28647
4.49885
4.6902
4.83431
4.94785
4.85184
4.62393
4.25381
2.83952
2.10154
1.73079
1.59374
1.57461
1.70124
1.84431
1.90778
1.90615
1.77254
1.58112
1.3594
1.22953
1.22969
1.22277
1.22922
1.23957
1.24567
1.22881
8.49457
8.49261
8.48982
8.48638
8.48211
8.47717
8.4714
8.46491
8.45762
8.44957
8.44069
8.43105
8.42057
8.40927
8.39715
8.38417
8.37033
8.35564
8.34006
8.32369
8.30622
8.28714
8.26674
8.2444
8.22053
8.1948
8.1662
8.13796
8.10075
8.06203
8.02
7.98417
7.92343
7.88233
7.8058
7.75378
7.68971
7.61665
7.53332
7.43761
7.32653
7.19645
7.04458
6.88916
6.74814
6.65478
6.60846
6.57746
6.54685
6.51118
6.47366
6.43129
6.38802
6.35042
6.31557
6.28237
6.25189
6.22617
6.20616
6.1914
6.18251
6.17986
6.1841
6.19915
6.21717
6.23389
6.24623
6.25162
6.2515
0.0280171
0.0280187
0.0280315
0.0280245
0.0280296
0.0280582
0.0280775
0.0280849
0.0280981
0.0280726
0.0280585
0.0280685
0.0281076
0.0281676
0.0282041
0.0281988
0.0282167
0.0282384
0.028283
0.028317
0.0283364
0.0283373
0.0283698
0.0283891
0.0284191
0.0284337
0.02847
0.0284936
0.0285364
0.0285618
0.0285624
0.0286082
0.0286501
0.0286622
0.0287002
0.0287125
0.0287604
0.0287801
0.0287777
0.02885
0.0288481
0.0288552
0.0288382
0.0288375
0.0288606
0.0289107
0.0289258
0.0289127
0.028892
0.0289023
0.028904
0.0289132
0.028944
0.0289509
0.0289368
0.0289499
0.0289558
0.0289583
0.0289581
0.028261
0.0282584
0.0282639
0.0282804
0.0282784
0.0282856
0.0282924
0.0282935
0.0282738
0.028268
0.0282939
0.0283222
0.0283579
0.0283765
0.0283842
0.0283828
0.0284259
0.0284554
0.0284949
0.028518
0.0285288
0.0285398
0.0285766
0.0286047
0.0286282
0.0286454
0.028687
0.0287151
0.0287568
0.0287842
0.0288015
0.0288299
0.0288872
0.0289146
0.0289362
0.0289505
0.0290045
0.0290592
0.0290565
0.0290912
0.0291074
0.0291445
0.0291592
0.0291591
0.0291596
0.0291757
0.0292141
0.029212
0.0291961
0.0291826
0.0291869
0.029194
0.0292106
0.0292237
0.0292341
0.029241
0.0292477
0.0292553
0.0292662
0.0285582
0.0285457
0.0285715
0.0285717
0.0285689
0.0285832
0.0285703
0.0285511
0.0285398
0.0285431
0.0285827
0.0286121
0.0286244
0.0286376
0.0286437
0.0286638
0.0287061
0.0287358
0.0287607
0.0287783
0.0287924
0.028811
0.0288487
0.0288757
0.0288951
0.0289167
0.0289596
0.0289947
0.0290357
0.0290652
0.0290906
0.0291287
0.0291794
0.0291916
0.0292486
0.0292666
0.0293011
0.0293534
0.0293838
0.0294255
0.0294602
0.0294703
0.0294941
0.0295126
0.0295193
0.0295417
0.029571
0.029622
0.029638
0.0296294
0.0296135
0.0296057
0.0296213
0.0296103
0.0296098
0.0296088
0.0296183
0.0296311
0.0296338
0.0289326
0.0289461
0.0289336
0.0289235
0.0289068
0.0288879
0.0288656
0.0288537
0.0288554
0.028883
0.028899
0.0289223
0.0289272
0.0289427
0.0289554
0.0289861
0.0290177
0.0290389
0.0290609
0.0290789
0.0290995
0.0291268
0.0291632
0.0291899
0.0292112
0.0292385
0.0292838
0.0293254
0.0293672
0.0294026
0.0294389
0.0294608
0.0295337
0.0295748
0.0295924
0.0296229
0.0296728
0.0297416
0.0297742
0.0297947
0.0298321
0.0298958
0.0299141
0.0299391
0.0299521
0.0299525
0.0299584
0.0299842
0.0300315
0.0300605
0.0300697
0.0300753
0.0300846
0.030099
0.0301209
0.0301338
0.0301438
0.0301517
0.0301719
0.0294547
0.029434
0.0294066
0.0293742
0.0293417
0.029316
0.0292958
0.0292797
0.0292728
0.0292862
0.0293061
0.0293137
0.0293213
0.0293395
0.029357
0.0293847
0.0294043
0.0294269
0.0294444
0.0294664
0.0294922
0.0295231
0.0295544
0.0295781
0.0296002
0.029633
0.02968
0.029728
0.0297733
0.0298099
0.0298556
0.0298918
0.0299494
0.0299807
0.0300524
0.0300727
0.0301011
0.0301647
0.030232
0.030289
0.0302962
0.0303436
0.0303913
0.0304393
0.0304894
0.0304981
0.0305155
0.0305372
0.030573
0.0305994
0.0306312
0.0306407
0.0306541
0.0306637
0.0306726
0.030677
0.030682
0.0306952
0.0307067
0.029859
0.0298232
0.0297892
0.0297594
0.0297427
0.0297283
0.0297103
0.0297032
0.0297158
0.0297403
0.0297437
0.0297513
0.0297702
0.0297785
0.0298047
0.0298231
0.0298429
0.029864
0.0298837
0.0299113
0.0299418
0.0299748
0.0300047
0.0300301
0.0300573
0.0300952
0.0301445
0.0301981
0.030247
0.0302927
0.0303433
0.0303691
0.0304571
0.0305174
0.0305384
0.0305918
0.0306316
0.0307037
0.0307551
0.0308259
0.0308857
0.0309194
0.0309584
0.0309915
0.0310404
0.0310819
0.0311073
0.0311301
0.0311663
0.031192
0.0312162
0.0312618
0.0312866
0.031338
0.0313714
0.0314187
0.0314382
0.0314747
0.0314907
0.03044
0.0304125
0.0303891
0.0303699
0.0303573
0.0303434
0.0303326
0.0303302
0.0303302
0.0303259
0.0303211
0.03032
0.0303238
0.0303418
0.0303671
0.0303781
0.0303999
0.0304142
0.0304403
0.0304676
0.0304994
0.0305312
0.0305597
0.0305836
0.0306147
0.0306589
0.0307107
0.0307716
0.0308276
0.030872
0.0309397
0.030977
0.031038
0.0310995
0.0311966
0.0312207
0.0312601
0.0313127
0.0314017
0.031467
0.0315339
0.0315869
0.0316493
0.0317053
0.0317378
0.0317693
0.0318261
0.0318708
0.0319066
0.0319452
0.0319503
0.0319684
0.0319865
0.0320046
0.0320287
0.0320694
0.032115
0.0321723
0.0322325
0.0311635
0.0311357
0.0311103
0.031084
0.0310605
0.031037
0.0310175
0.0310016
0.0309851
0.0309715
0.0309619
0.0309547
0.0309538
0.0309606
0.0309898
0.0310029
0.0310277
0.0310449
0.031078
0.0311087
0.0311436
0.031177
0.0312076
0.0312343
0.0312709
0.0313192
0.0313734
0.0314402
0.0315015
0.0315599
0.0316256
0.031667
0.0317658
0.0318393
0.031877
0.0319697
0.0320049
0.0320779
0.0321454
0.0322531
0.0323352
0.0323948
0.0324362
0.0324872
0.0325647
0.0325987
0.0326342
0.0326647
0.032719
0.0327827
0.0328584
0.0329088
0.0329634
0.033017
0.0330664
0.0331192
0.0331559
0.0332105
0.0332458
0.0320456
0.0320127
0.0319818
0.0319464
0.0319157
0.0318861
0.031861
0.0318395
0.031821
0.0318083
0.0317985
0.031791
0.0317879
0.031788
0.0317891
0.0317986
0.0318175
0.031837
0.0318678
0.0318992
0.0319333
0.0319667
0.0319967
0.0320244
0.0320683
0.0321232
0.0321835
0.0322583
0.0323293
0.0323843
0.0324755
0.0325197
0.0325819
0.0326835
0.0328033
0.0328533
0.0329127
0.032942
0.0330201
0.0331073
0.0332369
0.0333565
0.03343
0.0335024
0.0335699
0.0336222
0.033643
0.0336885
0.0336892
0.0336953
0.0337351
0.0337981
0.0338687
0.0339423
0.0340138
0.0340859
0.034147
0.0342135
0.0342626
0.0330156
0.0329776
0.0329432
0.032902
0.0328688
0.0328361
0.0328086
0.0327846
0.0327638
0.0327468
0.0327303
0.0327155
0.0327034
0.0326949
0.0326927
0.0326981
0.0327196
0.0327465
0.0327828
0.03282
0.0328586
0.0328966
0.03293
0.0329606
0.0330075
0.0330644
0.0331293
0.0332119
0.0332907
0.0333651
0.0334504
0.0335199
0.0336275
0.0337005
0.0337733
0.0339108
0.03401
0.0340921
0.0341397
0.0342099
0.0342756
0.0344039
0.0345055
0.0346201
0.0347614
0.0348489
0.0349528
0.0349971
0.0350814
0.0351321
0.0351616
0.0351759
0.0351958
0.0352336
0.035264
0.0352975
0.0353265
0.0353627
0.0354044
0.0342312
0.0341906
0.0341558
0.0341119
0.0340782
0.0340431
0.0340131
0.033985
0.0339588
0.0339345
0.0339104
0.0338892
0.0338717
0.0338597
0.0338544
0.0338551
0.0338581
0.0338831
0.0339154
0.0339516
0.0339894
0.0340258
0.0340581
0.0340918
0.0341504
0.0342184
0.0342929
0.034384
0.0344738
0.0345439
0.0346586
0.0347188
0.0347918
0.0349383
0.0350705
0.035128
0.0352123
0.0353266
0.03544
0.0355502
0.0356483
0.0357488
0.0358392
0.0359
0.0359934
0.0361144
0.0362424
0.0363398
0.0363963
0.0364632
0.0365203
0.036587
0.0366626
0.036767
0.0368658
0.0369635
0.0370324
0.0371151
0.0371811
0.0356024
0.0355551
0.035516
0.0354647
0.0354255
0.0353828
0.0353451
0.0353082
0.0352732
0.0352412
0.0352113
0.0351873
0.0351688
0.0351574
0.0351524
0.0351529
0.0351722
0.0352071
0.0352474
0.0352907
0.0353339
0.0353738
0.0354096
0.0354481
0.0355044
0.0355711
0.0356524
0.0357585
0.0358613
0.0359554
0.0360692
0.0361782
0.0362933
0.0363583
0.0364961
0.0367077
0.0368249
0.036888
0.0369614
0.0370765
0.0371989
0.0373592
0.0375053
0.0376685
0.0377702
0.0378546
0.0379677
0.0380827
0.0381933
0.038297
0.0383681
0.0384257
0.0384679
0.0385322
0.0385982
0.0386708
0.0387268
0.0387898
0.0388487
0.0373119
0.0372591
0.0372174
0.03716
0.0371176
0.0370695
0.0370282
0.0369877
0.0369506
0.0369177
0.0368882
0.0368652
0.0368467
0.0368344
0.0368265
0.0368259
0.0368298
0.036855
0.0368888
0.0369276
0.0369674
0.0370049
0.0370418
0.0370866
0.0371599
0.0372463
0.0373403
0.0374526
0.0375648
0.0376563
0.0377937
0.0378833
0.0379967
0.0381847
0.0382736
0.0383715
0.038573
0.0388001
0.0389
0.0389695
0.0390827
0.0391809
0.0392999
0.0394251
0.0396237
0.0397758
0.0399231
0.0400549
0.0402194
0.0403559
0.0404899
0.0405748
0.0406388
0.0407054
0.0407607
0.0408431
0.0408855
0.040953
0.0410135
0.0392806
0.0392201
0.0391736
0.0391081
0.039061
0.0390068
0.0389615
0.038917
0.0388773
0.0388426
0.0388122
0.0387887
0.0387698
0.0387577
0.0387513
0.0387547
0.038764
0.0388032
0.0388507
0.038897
0.0389401
0.0389801
0.0390209
0.0390716
0.0391424
0.039219
0.0393228
0.0394655
0.0396014
0.03972
0.0398746
0.0400284
0.0401428
0.0402519
0.040482
0.0406679
0.0407566
0.0409128
0.0411864
0.0413417
0.0414632
0.0416442
0.041782
0.0419008
0.0420289
0.0421718
0.0423038
0.042446
0.042601
0.0427343
0.0428616
0.0429846
0.0430837
0.0431724
0.0432849
0.043388
0.0434913
0.0436147
0.0437254
0.0418431
0.0417754
0.0417249
0.0416521
0.0416017
0.0415425
0.0414945
0.0414468
0.0414046
0.041367
0.0413321
0.0413026
0.0412744
0.0412514
0.0412317
0.041221
0.0412224
0.0412337
0.0412621
0.0412982
0.0413357
0.0413752
0.0414228
0.0414884
0.0415807
0.0416895
0.0418088
0.0419471
0.0420856
0.0422062
0.0423685
0.0425168
0.042698
0.0428785
0.0429867
0.0432132
0.0434672
0.0436202
0.0437949
0.0440479
0.0441901
0.0443573
0.044544
0.0447512
0.044917
0.0451067
0.045279
0.0454561
0.0456544
0.0458172
0.0459525
0.0460546
0.0461595
0.046239
0.0463044
0.0464165
0.0465118
0.0466123
0.0467552
0.0448335
0.0447543
0.0446971
0.0446119
0.044554
0.0444838
0.0444276
0.0443697
0.0443188
0.0442717
0.044229
0.0441933
0.0441627
0.0441425
0.0441309
0.0441324
0.0441408
0.0441628
0.0441978
0.0442372
0.0442785
0.0443231
0.0443768
0.0444468
0.0445353
0.044625
0.0447575
0.0449564
0.0451383
0.045289
0.0454916
0.0456857
0.0458327
0.0460371
0.046267
0.0464629
0.0466695
0.0469066
0.0471232
0.0474114
0.0476585
0.0478401
0.0479805
0.0481879
0.0483737
0.048558
0.0488095
0.0490102
0.0492008
0.0494015
0.049529
0.0496838
0.049787
0.0499433
0.0500495
0.0502373
0.050386
0.0505918
0.0507752
0.048677
0.0485839
0.0485185
0.0484196
0.0483535
0.0482721
0.0482074
0.0481396
0.0480793
0.0480222
0.0479683
0.0479203
0.0478748
0.0478372
0.0478047
0.0477859
0.0477837
0.0477917
0.0478104
0.0478381
0.0478742
0.0479227
0.0479912
0.0480867
0.0482097
0.0483456
0.048498
0.0486655
0.0488354
0.0489966
0.0492013
0.0494301
0.049694
0.049912
0.0501167
0.0503522
0.0507082
0.0509652
0.0511965
0.0514259
0.0517631
0.0520646
0.0523096
0.052517
0.0527498
0.0529195
0.053109
0.0534049
0.0535917
0.0538655
0.0540396
0.054231
0.0543872
0.0545425
0.0546723
0.0548272
0.0549502
0.055109
0.0552467
0.0531785
0.0530604
0.0529782
0.0528548
0.0527723
0.0526703
0.0525901
0.0525062
0.0524342
0.0523682
0.0523117
0.0522683
0.0522365
0.0522215
0.0522199
0.0522356
0.0522399
0.0522574
0.0522862
0.0523256
0.0523754
0.0524384
0.0525184
0.0526164
0.0527251
0.052828
0.0529929
0.0532813
0.0535278
0.0537168
0.0539686