/*--------------------------------*- C++ -*----------------------------------*\
| =========                 |                                                 |
| \\      /  F ield         | OpenFOAM: The Open Source CFD Toolbox           |
|  \\    /   O peration     | Version:  2312                                  |
|   \\  /    A nd           | Website:  www.openfoam.com                      |
|    \\/     M anipulation  |                                                 |
\*---------------------------------------------------------------------------*/
FoamFile
{
    version     2.0;
    format      ascii;
    arch        "LSB;label=32;scalar=64";
    class       volScalarField;
    location    "1300";
    object      p;
}
// * * * * * * * * * * * * * * * * * * * * * * * * * * * * * * * * * * * * * //

dimensions      [0 2 -2 0 0 0 0];

internalField   nonuniform List<scalar> 
76025
(
0.000188745
0.000180359
0.000171714
0.000163057
0.000154438
0.000145728
0.000136643
0.000127943
0.000118973
0.00011019
0.000101287
9.22903e-05
8.31945e-05
7.4117e-05
6.4971e-05
5.58163e-05
4.68584e-05
3.77761e-05
2.86907e-05
1.98247e-05
1.10204e-05
2.03303e-06
-6.83575e-06
-1.55511e-05
-2.42755e-05
-3.28454e-05
-4.15569e-05
-5.02884e-05
-5.85021e-05
-6.69965e-05
-7.47917e-05
-8.28558e-05
-9.1236e-05
-9.9553e-05
-0.000107554
-0.000115246
-0.000122627
-0.000130467
-0.0001382
-0.000145797
-0.000152913
-0.000159815
-0.000167288
-0.000174726
-0.000181684
-0.000188325
-0.000195168
-0.000202424
-0.000208989
-0.000215595
-0.000222274
-0.000228623
-0.000235322
-0.000242526
-0.000249657
-0.000256008
-0.000263298
-0.00027041
-0.000277814
-0.000285347
-0.000292743
-0.000301315
-0.00031106
-0.000321135
-0.000331819
-0.000343644
-0.000356832
-0.000373225
-0.00039327
0.000185444
0.000176572
0.000167586
0.000158534
0.000149427
0.000140243
0.000131048
0.00012184
0.000112545
0.000103212
9.38029e-05
8.43707e-05
7.49279e-05
6.5482e-05
5.60783e-05
4.67174e-05
3.73134e-05
2.79926e-05
1.864e-05
9.43548e-06
1.92683e-07
-8.95967e-06
-1.80474e-05
-2.7054e-05
-3.60429e-05
-4.49925e-05
-5.38635e-05
-6.25322e-05
-7.10545e-05
-7.9502e-05
-8.78532e-05
-9.63583e-05
-0.000104727
-0.000112872
-0.000120935
-0.000128859
-0.000136746
-0.000144557
-0.000152258
-0.000159886
-0.000167276
-0.000174597
-0.000181849
-0.000188958
-0.000195951
-0.000202862
-0.000209794
-0.000216724
-0.000223525
-0.000230325
-0.00023713
-0.000243848
-0.000250672
-0.000257645
-0.000264592
-0.000271535
-0.000278815
-0.000286166
-0.0002936
-0.00030121
-0.000309303
-0.000318254
-0.000327783
-0.000338002
-0.000349117
-0.000361612
-0.000375643
-0.000392025
-0.000410707
0.000182353
0.000173066
0.000163646
0.000154143
0.000144591
0.000135041
0.000125459
0.00011581
0.000106101
9.63333e-05
8.65356e-05
7.67387e-05
6.69513e-05
5.71838e-05
4.74518e-05
3.77208e-05
2.80112e-05
1.83386e-05
8.71498e-06
-8.60192e-07
-1.03721e-05
-1.98006e-05
-2.91632e-05
-3.84581e-05
-4.76817e-05
-5.68206e-05
-6.58251e-05
-7.47051e-05
-8.34878e-05
-9.21728e-05
-0.0001008
-0.00010935
-0.000117748
-0.000126021
-0.000134215
-0.000142314
-0.000150303
-0.000158163
-0.000165926
-0.000173581
-0.000181084
-0.000188458
-0.000195732
-0.000202943
-0.000210078
-0.000217123
-0.000224107
-0.000231067
-0.000237984
-0.000244849
-0.000251696
-0.000258533
-0.000265415
-0.000272397
-0.000279464
-0.000286594
-0.000293868
-0.000301312
-0.000308937
-0.000316855
-0.000325211
-0.000334185
-0.000343836
-0.000354315
-0.000365796
-0.000378595
-0.000392958
-0.000409706
-0.000428381
0.000179089
0.000169358
0.000159485
0.000149533
0.000139555
0.000129566
0.000119537
0.000109451
9.93179e-05
8.91533e-05
7.8976e-05
6.87995e-05
5.86315e-05
4.84782e-05
3.83469e-05
2.82413e-05
1.81739e-05
8.15469e-06
-1.8058e-06
-1.17008e-05
-2.15201e-05
-3.12599e-05
-4.09164e-05
-5.04811e-05
-5.99448e-05
-6.93015e-05
-7.85455e-05
-8.76772e-05
-9.66948e-05
-0.000105598
-0.000114388
-0.000123062
-0.000131621
-0.000140071
-0.000148419
-0.000156656
-0.000164762
-0.000172732
-0.000180573
-0.000188284
-0.000195862
-0.000203317
-0.00021067
-0.000217933
-0.000225099
-0.000232176
-0.000239188
-0.000246166
-0.00025311
-0.000260025
-0.000266936
-0.000273863
-0.000280827
-0.000287865
-0.000294986
-0.000302197
-0.000309544
-0.00031708
-0.000324838
-0.000332897
-0.00034138
-0.000350432
-0.00036017
-0.00037074
-0.000382339
-0.000395284
-0.000409833
-0.00042672
-0.000445365
0.000175233
0.000165027
0.000154679
0.000144255
0.00013381
0.000123356
0.000112869
0.000102334
9.17583e-05
8.11604e-05
7.05571e-05
5.99596e-05
4.93767e-05
3.88161e-05
2.8287e-05
1.78003e-05
7.3649e-06
-3.0089e-06
-1.33122e-05
-2.35357e-05
-3.36717e-05
-4.37131e-05
-5.36519e-05
-6.34815e-05
-7.31965e-05
-8.27931e-05
-9.2267e-05
-0.000101612
-0.000110824
-0.000119904
-0.000128854
-0.000137678
-0.00014638
-0.000154957
-0.000163409
-0.000171731
-0.000179908
-0.000187934
-0.000195814
-0.000203558
-0.000211172
-0.000218666
-0.000226049
-0.000233332
-0.00024052
-0.000247629
-0.000254677
-0.000261686
-0.000268668
-0.000275632
-0.000282597
-0.000289578
-0.000296595
-0.000303674
-0.000310837
-0.000318105
-0.000325511
-0.000333102
-0.000340927
-0.000349057
-0.000357593
-0.000366657
-0.000376378
-0.000386918
-0.000398485
-0.000411393
-0.000425913
-0.000442773
-0.000461658
0.000170762
0.000160052
0.000149201
0.000138277
0.000127337
0.000116397
0.000105432
9.44266e-05
8.33869e-05
7.23327e-05
6.12819e-05
5.0247e-05
3.92374e-05
2.82621e-05
1.73318e-05
6.45713e-06
-4.35181e-06
-1.5085e-05
-2.57326e-05
-3.62856e-05
-4.67351e-05
-5.70728e-05
-6.72914e-05
-7.73846e-05
-8.7347e-05
-9.71733e-05
-0.000106858
-0.000116398
-0.00012579
-0.000135035
-0.000144135
-0.000153093
-0.000161911
-0.000170588
-0.000179127
-0.000187521
-0.000195756
-0.000203829
-0.000211747
-0.000219521
-0.000227162
-0.00023468
-0.000242084
-0.000249383
-0.000256588
-0.000263714
-0.000270778
-0.000277801
-0.0002848
-0.000291786
-0.000298776
-0.000305787
-0.000312836
-0.000319946
-0.000327139
-0.000334438
-0.000341874
-0.000349488
-0.000357328
-0.000365459
-0.000373965
-0.000382953
-0.00039255
-0.00040292
-0.000414271
-0.000426916
-0.000441148
-0.000457703
-0.000476418
0.00016566
0.000154417
0.000143034
0.000131583
0.000120124
0.000108673
9.72069e-05
8.57069e-05
7.41812e-05
6.26505e-05
5.11342e-05
3.96458e-05
2.8195e-05
1.67916e-05
5.44652e-06
-5.82869e-06
-1.70228e-05
-2.81249e-05
-3.91248e-05
-5.00128e-05
-6.07797e-05
-7.14168e-05
-8.19166e-05
-9.22724e-05
-0.000102478
-0.000112528
-0.000122418
-0.000132145
-0.000141708
-0.000151107
-0.000160343
-0.000169419
-0.000178336
-0.0001871
-0.000195712
-0.000204161
-0.000212437
-0.000220537
-0.00022847
-0.000236249
-0.000243888
-0.0002514
-0.000258796
-0.000266086
-0.000273281
-0.000280397
-0.000287455
-0.000294475
-0.000301473
-0.000308466
-0.000315466
-0.000322491
-0.000329557
-0.000336682
-0.000343887
-0.000351194
-0.00035863
-0.000366231
-0.000374037
-0.000382103
-0.0003905
-0.000399317
-0.000408671
-0.000418715
-0.000429648
-0.000441777
-0.000455408
-0.000471278
-0.000489326
0.000159824
0.000148016
0.000136071
0.000124065
0.000112058
0.000100069
8.8073e-05
7.60522e-05
6.40146e-05
5.19828e-05
3.99776e-05
2.80136e-05
1.61014e-05
4.25142e-06
-7.52482e-06
-1.92149e-05
-3.08064e-05
-4.22877e-05
-5.36479e-05
-6.48765e-05
-7.59639e-05
-8.6901e-05
-9.76797e-05
-0.000108293
-0.000118734
-0.000128999
-0.000139082
-0.000148983
-0.000158699
-0.000168232
-0.000177582
-0.000186752
-0.000195748
-0.000204574
-0.000213231
-0.000221707
-0.000229992
-0.000238086
-0.000246003
-0.000253757
-0.000261367
-0.000268847
-0.000276211
-0.000283468
-0.000290633
-0.000297722
-0.000304757
-0.000311757
-0.000318739
-0.00032572
-0.000332714
-0.000339736
-0.0003468
-0.000353922
-0.00036112
-0.000368413
-0.000375823
-0.000383375
-0.000391103
-0.000399046
-0.000407257
-0.000415808
-0.000424794
-0.000434348
-0.000444648
-0.000455976
-0.000468639
-0.000483323
-0.000500356
0.000153136
0.000140731
0.000128192
0.000115597
0.000103009
9.04503e-05
7.7895e-05
6.53244e-05
5.27474e-05
4.01883e-05
2.76696e-05
1.52074e-05
2.81319e-06
-9.50178e-06
-2.1725e-05
-3.3843e-05
-4.58424e-05
-5.77107e-05
-6.9436e-05
-8.10074e-05
-9.24147e-05
-0.000103648
-0.0001147
-0.000125562
-0.000136228
-0.000146693
-0.000156953
-0.000167007
-0.000176855
-0.000186496
-0.000195935
-0.000205174
-0.00021422
-0.00022308
-0.000231751
-0.00024022
-0.000248481
-0.000256539
-0.000264409
-0.000272111
-0.000279663
-0.000287084
-0.000294388
-0.000301588
-0.000308698
-0.000315736
-0.000322724
-0.000329681
-0.000336627
-0.000343577
-0.000350546
-0.000357546
-0.000364591
-0.000371695
-0.00037887
-0.000386131
-0.000393492
-0.000400969
-0.00040858
-0.00041635
-0.00042431
-0.000432505
-0.000441001
-0.000449899
-0.000459343
-0.000469573
-0.00048087
-0.000493788
-0.000508601
0.00014548
0.00013244
0.00011927
0.000106052
9.285e-05
7.96884e-05
6.65419e-05
5.33912e-05
4.02461e-05
2.71325e-05
1.40751e-05
1.09133e-06
-1.18061e-05
-2.46048e-05
-3.72911e-05
-4.98505e-05
-6.22684e-05
-7.45311e-05
-8.66262e-05
-9.85419e-05
-0.000110267
-0.000121793
-0.00013311
-0.00014421
-0.000155087
-0.000165736
-0.000176154
-0.000186341
-0.000196295
-0.000206019
-0.000215518
-0.000224796
-0.000233861
-0.000242721
-0.000251369
-0.000259795
-0.000267995
-0.000275978
-0.000283765
-0.000291377
-0.000298837
-0.000306164
-0.000313376
-0.000320486
-0.000327511
-0.00033447
-0.000341385
-0.000348277
-0.000355164
-0.000362064
-0.00036899
-0.000375953
-0.000382966
-0.000390038
-0.000397179
-0.000404396
-0.000411695
-0.000419079
-0.00042655
-0.000434112
-0.000441769
-0.000449532
-0.000457428
-0.00046551
-0.000473869
-0.00048269
-0.000492214
-0.000502924
-0.00051537
0.000136722
0.000123006
0.000109167
9.52864e-05
8.14336e-05
6.7634e-05
5.38626e-05
4.00995e-05
2.63555e-05
1.26585e-05
-9.64585e-07
-1.44946e-05
-2.79175e-05
-4.12197e-05
-5.43865e-05
-6.74019e-05
-8.02499e-05
-9.29158e-05
-0.000105386
-0.000117648
-0.00012969
-0.000141502
-0.000153075
-0.0001644
-0.000175472
-0.000186285
-0.000196838
-0.00020713
-0.000217162
-0.000226937
-0.000236461
-0.000245741
-0.000254787
-0.000263604
-0.000272185
-0.000280521
-0.000288613
-0.000296478
-0.000304137
-0.000311617
-0.000318942
-0.000326136
-0.000333217
-0.000340203
-0.00034711
-0.000353959
-0.000360773
-0.000367574
-0.000374381
-0.00038121
-0.000388076
-0.000394988
-0.000401958
-0.000408991
-0.000416093
-0.000423264
-0.000430499
-0.000437788
-0.000445114
-0.000452455
-0.000459783
-0.000467066
-0.000474277
-0.000481404
-0.00048846
-0.000495535
-0.000502815
-0.000510678
-0.000519919
0.000126698
0.000112262
9.77092e-05
8.3125e-05
6.85806e-05
5.41044e-05
3.96715e-05
2.52613e-05
1.08856e-05
-3.42567e-06
-1.76431e-05
-3.17454e-05
-4.5717e-05
-5.9543e-05
-7.32075e-05
-8.6693e-05
-9.9982e-05
-0.000113058
-0.000125908
-0.000138516
-0.000150871
-0.000162961
-0.000174777
-0.000186311
-0.000197557
-0.00020851
-0.000219169
-0.000229533
-0.000239606
-0.000249393
-0.0002589
-0.000268137
-0.000277115
-0.000285839
-0.000294299
-0.00030249
-0.000310421
-0.000318113
-0.000325594
-0.000332892
-0.000340036
-0.000347052
-0.000353961
-0.000360781
-0.000367532
-0.000374237
-0.000380919
-0.000387602
-0.000394303
-0.000401042
-0.000407831
-0.000414682
-0.000421601
-0.000428595
-0.000435662
-0.000442796
-0.000449982
-0.000457195
-0.000464397
-0.000471537
-0.000478546
-0.000485342
-0.00049183
-0.000497909
-0.000503486
-0.000508499
-0.000513012
-0.000517072
-0.000522041
0.00011522
0.000100014
8.47011e-05
6.93673e-05
5.40873e-05
3.88925e-05
2.37578e-05
8.66245e-06
-6.38106e-06
-2.134e-05
-3.61825e-05
-5.08848e-05
-6.54297e-05
-7.98009e-05
-9.39807e-05
-0.00010795
-0.00012169
-0.000135183
-0.000148413
-0.000161365
-0.000174025
-0.000186381
-0.000198424
-0.000210145
-0.000221538
-0.000232599
-0.000243328
-0.000253726
-0.000263797
-0.000273547
-0.000282986
-0.000292126
-0.00030098
-0.000309548
-0.000317823
-0.000325806
-0.000333513
-0.000340971
-0.000348213
-0.000355272
-0.00036218
-0.000368965
-0.000375652
-0.000382261
-0.000388815
-0.000395336
-0.000401852
-0.000408385
-0.000414956
-0.000421584
-0.000428282
-0.000435062
-0.00044193
-0.000448891
-0.000455938
-0.00046306
-0.000470232
-0.000477414
-0.000484545
-0.000491544
-0.000498299
-0.000504665
-0.000510464
-0.000515485
-0.000519496
-0.000522241
-0.000523579
-0.000522954
-0.000521065
0.000102071
8.60424e-05
6.9917e-05
5.3784e-05
3.77207e-05
2.17615e-05
5.88169e-06
-9.94025e-06
-2.56905e-05
-4.13336e-05
-5.68344e-05
-7.21669e-05
-8.73115e-05
-0.00010225
-0.000116964
-0.000131432
-0.000145632
-0.000159546
-0.000173156
-0.000186445
-0.000199399
-0.000212006
-0.000224253
-0.000236134
-0.000247642
-0.000258774
-0.000269529
-0.000279911
-0.000289926
-0.000299582
-0.000308891
-0.000317868
-0.000326527
-0.000334864
-0.000342878
-0.000350578
-0.000357986
-0.000365138
-0.000372072
-0.000378824
-0.000385432
-0.000391926
-0.000398334
-0.00040468
-0.000410988
-0.000417283
-0.000423594
-0.000429945
-0.000436359
-0.000442855
-0.000449448
-0.000456151
-0.000462972
-0.000469912
-0.000476966
-0.000484116
-0.000491331
-0.000498557
-0.000505714
-0.000512689
-0.000519323
-0.000525404
-0.00053066
-0.000534748
-0.000537264
-0.000537703
-0.000535738
-0.000530494
-0.000523776
8.69933e-05
7.00841e-05
5.30899e-05
3.6103e-05
1.92037e-05
2.42981e-06
-1.42431e-05
-3.0837e-05
-4.73367e-05
-6.37037e-05
-7.98993e-05
-9.58944e-05
-0.000111667
-0.000127198
-0.000142465
-0.000157445
-0.000172115
-0.000186454
-0.000200441
-0.00021406
-0.000227293
-0.000240128
-0.000252554
-0.00026456
-0.000276143
-0.000287298
-0.000298027
-0.000308334
-0.000318228
-0.000327719
-0.000336823
-0.000345559
-0.000353936
-0.000361952
-0.000369614
-0.000376939
-0.00038396
-0.000390719
-0.00039726
-0.000403627
-0.000409859
-0.000415992
-0.000422055
-0.000428077
-0.000434084
-0.000440104
-0.000446167
-0.000452299
-0.000458526
-0.000464867
-0.000471341
-0.000477963
-0.000484742
-0.000491681
-0.000498778
-0.000506012
-0.00051335
-0.00052073
-0.000528057
-0.00053519
-0.000541928
-0.000547994
-0.000553021
-0.000556515
-0.000557863
-0.00055623
-0.000550959
-0.000540287
-0.000526839
6.96904e-05
5.18365e-05
3.39113e-05
1.60101e-05
-1.78325e-06
-1.94273e-05
-3.69459e-05
-5.43616e-05
-7.16576e-05
-8.87919e-05
-0.000105722
-0.000122415
-0.000138846
-0.000154994
-0.000170834
-0.000186341
-0.000201489
-0.000216254
-0.000230615
-0.00024455
-0.000258044
-0.000271081
-0.000283649
-0.000295739
-0.000307345
-0.000318465
-0.000329101
-0.000339259
-0.000348951
-0.00035819
-0.000366996
-0.00037539
-0.000383378
-0.000390965
-0.000398164
-0.000405006
-0.000411535
-0.000417799
-0.000423851
-0.000429739
-0.000435509
-0.000441199
-0.000446844
-0.000452473
-0.000458118
-0.000463808
-0.000469576
-0.00047545
-0.000481456
-0.000487617
-0.000493956
-0.000500491
-0.000507235
-0.000514198
-0.00052138
-0.00052877
-0.000536333
-0.00054401
-0.0005517
-0.000559249
-0.000566429
-0.000572916
-0.000578249
-0.000581788
-0.000582696
-0.000579754
-0.000571859
-0.000556145
-0.000534062
4.98114e-05
3.09419e-05
1.20163e-05
-6.86654e-06
-2.5619e-05
-4.41955e-05
-6.26193e-05
-8.09131e-05
-9.90584e-05
-0.000117009
-0.000134719
-0.00015215
-0.000169275
-0.000186069
-0.000202505
-0.000218555
-0.000234191
-0.000249385
-0.000264112
-0.000278351
-0.000292082
-0.00030529
-0.000317959
-0.000330081
-0.00034165
-0.000352665
-0.000363129
-0.000373051
-0.000382444
-0.000391327
-0.000399723
-0.000407653
-0.000415123
-0.000422147
-0.00042875
-0.000434978
-0.000440883
-0.000446527
-0.000451968
-0.000457263
-0.000462462
-0.00046761
-0.000472744
-0.000477899
-0.000483109
-0.000488406
-0.000493823
-0.00049939
-0.000505137
-0.00051109
-0.000517272
-0.00052371
-0.000530424
-0.000537433
-0.000544748
-0.000552367
-0.000560272
-0.000568416
-0.000576711
-0.000585018
-0.000593108
-0.000600633
-0.000607073
-0.000611657
-0.000613303
-0.000610404
-0.000601529
-0.000582897
-0.000557153
2.69548e-05
6.9927e-06
-1.30084e-05
-3.29458e-05
-5.27278e-05
-7.23039e-05
-9.16965e-05
-0.000110929
-0.00012998
-0.000148799
-0.000167335
-0.000185546
-0.000203401
-0.00022087
-0.000237925
-0.000254533
-0.000270663
-0.000286283
-0.000301366
-0.000315886
-0.000329822
-0.000343156
-0.000355873
-0.000367961
-0.000379415
-0.000390235
-0.000400425
-0.000409997
-0.000418967
-0.000427359
-0.000435201
-0.000442511
-0.000449302
-0.0004556
-0.000461449
-0.000466905
-0.000472037
-0.000476916
-0.000481611
-0.000486186
-0.000490699
-0.000495198
-0.000499727
-0.000504323
-0.000509022
-0.00051386
-0.00051887
-0.000524083
-0.000529529
-0.000535237
-0.000541238
-0.000547562
-0.000554242
-0.00056131
-0.000568793
-0.000576712
-0.000585075
-0.000593872
-0.000603061
-0.000612545
-0.000622138
-0.000631512
-0.000640125
-0.00064707
-0.000651045
-0.000650052
-0.000642067
-0.00062214
-0.000593079
6.07502e-07
-2.05372e-05
-4.17032e-05
-6.27825e-05
-8.36786e-05
-0.000104336
-0.000124775
-0.00014502
-0.000165048
-0.000184802
-0.000204225
-0.000223271
-0.000241903
-0.000260089
-0.000277794
-0.000294985
-0.000311622
-0.000327673
-0.000343105
-0.000357889
-0.000372
-0.000385417
-0.000398124
-0.000410108
-0.000421363
-0.000431888
-0.00044169
-0.000450784
-0.00045919
-0.000466936
-0.000474052
-0.000480557
-0.000486473
-0.000491844
-0.000496732
-0.00050121
-0.000505364
-0.000509279
-0.000513038
-0.000516714
-0.000520375
-0.000524077
-0.000527867
-0.000531789
-0.000535879
-0.000540173
-0.000544702
-0.000549496
-0.000554584
-0.000559999
-0.000565773
-0.000571949
-0.00057857
-0.000585685
-0.00059335
-0.000601619
-0.00061055
-0.000620196
-0.00063059
-0.000641721
-0.000653496
-0.000665644
-0.000677623
-0.00068849
-0.00069668
-0.000699485
-0.000693906
-0.000673984
-0.000643356
-2.9724e-05
-5.21406e-05
-7.4557e-05
-9.68614e-05
-0.000118952
-0.000140766
-0.000162325
-0.000183651
-0.000204718
-0.000225465
-0.000245829
-0.000265755
-0.000285202
-0.000304134
-0.000322512
-0.000340295
-0.000357441
-0.00037391
-0.000389665
-0.000404672
-0.000418904
-0.000432334
-0.000444943
-0.000456716
-0.000467647
-0.000477735
-0.000486988
-0.000495423
-0.000503066
-0.000509951
-0.000516107
-0.000521562
-0.000526358
-0.000530561
-0.000534252
-0.000537529
-0.000540494
-0.00054325
-0.000545893
-0.000548511
-0.000551181
-0.000553966
-0.00055692
-0.000560086
-0.0005635
-0.000567194
-0.000571191
-0.000575515
-0.000580193
-0.000585257
-0.000590749
-0.00059672
-0.000603235
-0.000610368
-0.00061821
-0.000626865
-0.000636453
-0.00064711
-0.000658977
-0.000672168
-0.000686702
-0.000702451
-0.000718961
-0.000735041
-0.000748455
-0.000755675
-0.000752879
-0.000734217
-0.00070476
-6.49785e-05
-8.87977e-05
-0.0001126
-0.000136263
-0.000159677
-0.000182774
-0.000205572
-0.000228094
-0.000250312
-0.000272157
-0.000293558
-0.000314454
-0.000334798
-0.000354547
-0.000373656
-0.00039208
-0.000409771
-0.000426681
-0.000442768
-0.000457991
-0.000472318
-0.000485717
-0.000498165
-0.000509643
-0.000520144
-0.000529665
-0.000538215
-0.000545815
-0.000552496
-0.00055829
-0.000563226
-0.000567345
-0.00057071
-0.000573412
-0.000575559
-0.000577275
-0.000578689
-0.000579928
-0.000581111
-0.000582349
-0.000583734
-0.000585345
-0.000587242
-0.00058947
-0.00059206
-0.000595031
-0.000598393
-0.000602155
-0.000606334
-0.000610962
-0.000616089
-0.000621787
-0.000628145
-0.000635264
-0.000643263
-0.00065229
-0.000662527
-0.000674196
-0.000687564
-0.000702939
-0.000720528
-0.00074016
-0.000761098
-0.000781649
-0.000799029
-0.000809324
-0.000808554
-0.000792904
-0.000765927
-0.00010524
-0.000130539
-0.00015579
-0.000180874
-0.000205676
-0.000230118
-0.000254216
-0.000277991
-0.000301413
-0.000324406
-0.000346889
-0.000368792
-0.000390061
-0.000410645
-0.000430493
-0.000449552
-0.000467765
-0.000485078
-0.000501438
-0.0005168
-0.000531121
-0.000544364
-0.000556499
-0.000567505
-0.000577366
-0.000586079
-0.000593653
-0.000600111
-0.000605487
-0.000609818
-0.000613148
-0.000615543
-0.000617102
-0.000617946
-0.000618218
-0.000618072
-0.00061767
-0.000617167
-0.000616711
-0.000616432
-0.000616442
-0.000616829
-0.000617657
-0.000618963
-0.000620762
-0.00062305
-0.000625813
-0.000629042
-0.000632745
-0.000636957
-0.000641741
-0.000647184
-0.000653392
-0.000660466
-0.00066853
-0.000677743
-0.000688358
-0.000700743
-0.000715308
-0.000732346
-0.0007519
-0.000773475
-0.000796072
-0.000817764
-0.000835956
-0.00084755
-0.000849135
-0.000838639
-0.000817355
-0.000153534
-0.000180542
-0.000207507
-0.000234264
-0.000260689
-0.000286702
-0.000312316
-0.000337552
-0.000362375
-0.000386704
-0.000410448
-0.000433529
-0.000455881
-0.000477448
-0.000498171
-0.000517986
-0.000536829
-0.000554634
-0.00057134
-0.000586889
-0.00060123
-0.000614317
-0.000626112
-0.000636584
-0.000645714
-0.000653494
-0.00065993
-0.00066504
-0.000668848
-0.000671385
-0.000672705
-0.000672898
-0.000672092
-0.000670446
-0.000668145
-0.000665392
-0.000662396
-0.000659368
-0.000656507
-0.000653996
-0.000651988
-0.000650603
-0.000649917
-0.000649959
-0.000650712
-0.000652127
-0.000654146
-0.000656728
-0.000659874
-0.000663623
-0.000668042
-0.000673208
-0.000679188
-0.000686064
-0.000693983
-0.000703098
-0.000713598
-0.000725783
-0.000739895
-0.000756028
-0.000774087
-0.000793539
-0.000813827
-0.000833778
-0.000851358
-0.000863733
-0.000867068
-0.000860474
-0.000849294
-0.000205849
-0.000234611
-0.000263241
-0.000291652
-0.000319707
-0.000347305
-0.000374451
-0.000401166
-0.000427407
-0.000453084
-0.000478093
-0.000502344
-0.000525762
-0.000548279
-0.000569826
-0.00059033
-0.000609713
-0.000627898
-0.00064481
-0.00066038
-0.000674542
-0.000687236
-0.000698411
-0.000708022
-0.00071604
-0.000722447
-0.000727247
-0.00073046
-0.000732113
-0.000732256
-0.000730978
-0.000728413
-0.000724733
-0.000720151
-0.000714907
-0.000709261
-0.000703484
-0.000697846
-0.000692605
-0.000687998
-0.000684227
-0.000681438
-0.000679705
-0.000679015
-0.000679268
-0.000680301
-0.000681947
-0.000684095
-0.000686742
-0.000690004
-0.000694057
-0.000699016
-0.000704863
-0.000711561
-0.000719128
-0.000727402
-0.000736172
-0.000745648
-0.000756025
-0.000767554
-0.00078109
-0.000796832
-0.00081455
-0.000832694
-0.000847757
-0.00085676
-0.000859154
-0.000857858
-0.00086091
-0.000275787
-0.000306578
-0.000337382
-0.000367894
-0.000397973
-0.000427535
-0.000456588
-0.00048515
-0.000513178
-0.000540569
-0.000567208
-0.000592989
-0.000617824
-0.000641632
-0.000664333
-0.000685841
-0.000706062
-0.000724905
-0.000742279
-0.000758096
-0.000772275
-0.000784742
-0.000795425
-0.000804264
-0.000811209
-0.00081622
-0.000819268
-0.000820335
-0.000819426
-0.000816583
-0.000811903
-0.00080554
-0.000797711
-0.000788689
-0.0007788
-0.000768414
-0.00075793
-0.000747753
-0.000738286
-0.000729905
-0.000722927
-0.000717572
-0.000713916
-0.000711857
-0.000711115
-0.000711281
-0.000711956
-0.000712912
-0.000714224
-0.000716275
-0.000719518
-0.000723982
-0.000729121
-0.000734508
-0.000740137
-0.000745483
-0.000749909
-0.000754437
-0.000760331
-0.000768352
-0.000779929
-0.000794237
-0.000808523
-0.000820278
-0.000828167
-0.000832092
-0.000834476
-0.000840492
-0.000857405
-0.000339355
-0.000372502
-0.000405268
-0.000437753
-0.000469803
-0.000501267
-0.000532139
-0.000562442
-0.000592133
-0.000621104
-0.000649224
-0.000676373
-0.000702449
-0.000727358
-0.000751005
-0.000773289
-0.000794102
-0.000813332
-0.000830869
-0.000846602
-0.000860424
-0.000872231
-0.000881928
-0.000889434
-0.00089469
-0.00089765
-0.000898277
-0.000896556
-0.00089251
-0.000886207
-0.000877767
-0.000867369
-0.000855257
-0.000841751
-0.000827248
-0.000812231
-0.000797245
-0.000782886
-0.000769772
-0.000758493
-0.000749547
-0.000743263
-0.000739714
-0.000738618
-0.000739294
-0.000740729
-0.000741901
-0.000742239
-0.000741953
-0.000741999
-0.000743445
-0.000746087
-0.000748148
-0.00074903
-0.000750169
-0.000751859
-0.00075328
-0.000756347
-0.000762786
-0.000771408
-0.000780329
-0.00078898
-0.000796558
-0.000801634
-0.000803783
-0.000804227
-0.000806578
-0.000816604
-0.00084049
-0.000448893
-0.000484212
-0.000519894
-0.000555223
-0.000589999
-0.000624131
-0.000657621
-0.000690483
-0.000722659
-0.000754026
-0.000784438
-0.000813757
-0.000841862
-0.000868641
-0.000893979
-0.000917754
-0.000939837
-0.000960099
-0.000978413
-0.000994655
-0.00100868
-0.00102033
-0.00102942
-0.00103577
-0.00103925
-0.0010397
-0.00103704
-0.00103122
-0.00102227
-0.00101029
-0.000995484
-0.000978117
-0.00095851
-0.000937044
-0.000914197
-0.000890561
-0.000866857
-0.000843933
-0.00082274
-0.000804281
-0.000789528
-0.000779281
-0.000773957
-0.000773283
-0.000775991
-0.000779722
-0.000781762
-0.000780469
-0.000776019
-0.000770391
-0.000766333
-0.000764404
-0.000761752
-0.000758012
-0.000756341
-0.000758027
-0.0007614
-0.000764891
-0.000768641
-0.000773045
-0.000777598
-0.000781623
-0.000784242
-0.000784574
-0.000782625
-0.000779993
-0.000780492
-0.000789749
-0.000813432
-0.000517206
-0.000555359
-0.000592538
-0.000629643
-0.000666441
-0.000702595
-0.000738057
-0.000772852
-0.000806916
-0.000840101
-0.00087224
-0.000903179
-0.000932783
-0.000960921
-0.000987458
-0.00101224
-0.00103512
-0.00105593
-0.00107454
-0.00109089
-0.00110492
-0.00111652
-0.00112547
-0.00113153
-0.0011344
-0.00113386
-0.00112967
-0.00112167
-0.0011097
-0.00109368
-0.00107361
-0.00104966
-0.00102216
-0.000991549
-0.00095847
-0.000923755
-0.000888504
-0.00085408
-0.000822106
-0.000794393
-0.000772784
-0.00075888
-0.000753625
-0.000756766
-0.000766221
-0.000777653
-0.000785929
-0.000788271
-0.00078485
-0.000778362
-0.000772944
-0.000770829
-0.000770925
-0.000771114
-0.000770674
-0.000770189
-0.000770284
-0.000770972
-0.000772147
-0.000773561
-0.000774727
-0.000774892
-0.000773117
-0.000768859
-0.000762382
-0.000755591
-0.000752574
-0.000759009
-0.000779163
-0.00068925
-0.000731151
-0.000773599
-0.000815243
-0.000855842
-0.00089557
-0.000934577
-0.000972865
-0.00101032
-0.00104675
-0.00108198
-0.00111581
-0.00114811
-0.00117869
-0.0012074
-0.00123402
-0.00125833
-0.00128007
-0.00129892
-0.00131452
-0.00132652
-0.00133471
-0.00133904
-0.00133954
-0.00133622
-0.00132903
-0.00131787
-0.00130252
-0.00128273
-0.00125825
-0.00122886
-0.00119446
-0.00115518
-0.00111148
-0.00106418
-0.00101443
-0.000963718
-0.00091388
-0.000867029
-0.000825453
-0.000791422
-0.000766882
-0.000753088
-0.000750164
-0.000756507
-0.000768013
-0.00077919
-0.00078641
-0.000788926
-0.000787447
-0.000783787
-0.000780368
-0.000778501
-0.000777294
-0.000776069
-0.000774974
-0.00077421
-0.000773713
-0.000773315
-0.000772701
-0.000771327
-0.000768447
-0.000763157
-0.000754658
-0.000743512
-0.000732665
-0.000726825
-0.000729632
-0.000742782
0.000333471
0.000339652
0.000346081
0.000352796
0.000359819
0.000367221
0.000375008
0.000382956
0.000391067
0.000399493
0.000408241
0.00041721
0.000426148
0.000435681
0.000444575
0.000453587
0.000461796
0.000470385
0.000478322
0.000485927
0.0004935
0.000499386
0.00050453
0.000508564
0.000511606
0.000513454
0.000513572
0.000512454
0.000510211
0.000506353
0.000500654
0.000493913
0.000486109
0.000477196
0.000466568
0.000455196
0.000443111
0.000430228
0.000416812
0.000403196
0.000389149
0.000374943
0.000361266
0.000347876
0.000333823
0.000320746
0.000307523
0.000295169
0.000283216
0.000271835
0.00026109
0.000250914
0.000241441
0.000232538
0.000224198
0.000216001
0.000208687
0.000201882
0.000195722
0.00033572
0.000342153
0.000348916
0.000355975
0.00036336
0.000371086
0.000379146
0.000387482
0.000396101
0.000405019
0.000414186
0.000423536
0.00043299
0.0004426
0.000452229
0.000461631
0.000470831
0.000479783
0.00048834
0.000496283
0.000503776
0.000510302
0.000515767
0.000520175
0.000523399
0.000525226
0.000525616
0.000524412
0.000522029
0.000517965
0.00051216
0.000505201
0.000497066
0.000487505
0.000476647
0.000464803
0.000452134
0.00043873
0.000424778
0.000410385
0.000395698
0.000380992
0.000366465
0.000351891
0.000337587
0.000323651
0.000310126
0.000297185
0.00028472
0.000272794
0.000261502
0.000250842
0.000240734
0.000231272
0.00022233
0.000214055
0.000206438
0.000199409
0.000192919
0.00033756
0.000344327
0.000351423
0.000358866
0.000366655
0.000374794
0.000383269
0.000392065
0.000401178
0.000410594
0.000420256
0.000430096
0.000440071
0.000450154
0.000460263
0.000470317
0.000480191
0.000489724
0.000498762
0.000507216
0.000514989
0.000521959
0.000527828
0.000532534
0.000535973
0.00053793
0.000538397
0.000537263
0.00053468
0.000530469
0.000524559
0.000517305
0.000508644
0.000498594
0.000487266
0.000474914
0.000461633
0.000447626
0.000433019
0.000417986
0.000402676
0.000387198
0.000371762
0.00035653
0.000341574
0.000327034
0.000312928
0.000299314
0.000286241
0.00027376
0.000261926
0.000250726
0.00024016
0.000230218
0.000220962
0.000212377
0.000204415
0.00019704
0.000190213
0.000339011
0.000346128
0.000353601
0.000361444
0.000369659
0.000378246
0.000387197
0.0003965
0.00040614
0.00041609
0.000426309
0.000436741
0.000447336
0.000458027
0.000468715
0.000479344
0.000489767
0.000499867
0.000509474
0.000518505
0.000526787
0.000534155
0.000540409
0.000545435
0.000549124
0.000551276
0.000551838
0.000550727
0.000548006
0.000543645
0.000537541
0.000529946
0.000520824
0.00051031
0.000498456
0.000485511
0.000471593
0.000456889
0.000441555
0.000425785
0.000409734
0.000393528
0.000377361
0.000361427
0.000345758
0.000330494
0.000315692
0.00030141
0.000287715
0.000274654
0.000262264
0.000250555
0.000239538
0.000229204
0.000219553
0.000210564
0.00020221
0.000194465
0.000187316
0.000340402
0.000347894
0.000355761
0.00036402
0.000372674
0.000381724
0.000391164
0.000400983
0.000411162
0.000421671
0.000432471
0.000443513
0.000454735
0.000466058
0.000477385
0.000488622
0.000499648
0.000510345
0.000520556
0.00053016
0.000538972
0.000546795
0.000553462
0.00055884
0.0005628
0.00056516
0.000565843
0.000564744
0.000561923
0.000557394
0.00055105
0.00054311
0.000533562
0.000522548
0.000510137
0.000496553
0.000481951
0.000466513
0.000450414
0.00043385
0.000417003
0.000400035
0.000383109
0.000366381
0.000349942
0.000333906
0.000318367
0.000303392
0.000289042
0.000275361
0.000262381
0.000250119
0.000238579
0.000227755
0.000217636
0.000208206
0.00019945
0.000191335
0.000183853
0.000341724
0.000349617
0.000357908
0.000366614
0.000375737
0.00038528
0.000395237
0.000405595
0.000416336