/*--------------------------------*- C++ -*----------------------------------*\
| =========                 |                                                 |
| \\      /  F ield         | OpenFOAM: The Open Source CFD Toolbox           |
|  \\    /   O peration     | Version:  2312                                  |
|   \\  /    A nd           | Website:  www.openfoam.com                      |
|    \\/     M anipulation  |                                                 |
\*---------------------------------------------------------------------------*/
FoamFile
{
    version     2.0;
    format      ascii;
    arch        "LSB;label=32;scalar=64";
    class       surfaceScalarField;
    location    "1300";
    object      phi;
}
// * * * * * * * * * * * * * * * * * * * * * * * * * * * * * * * * * * * * * //

dimensions      [0 3 -1 0 0 0 0];

oriented        oriented;

internalField   nonuniform List<scalar> 
116611
(
0.00125009
0.000425831
-0.00123391
-0.000442009
0.00126606
0.000421601
-0.000437574
0.0012819
0.000417075
-0.000432909
0.00129755
0.000412207
-0.000427856
0.00131293
0.000406931
-0.000422317
0.00132839
0.000401232
-0.000416686
0.00134321
0.000395131
-0.000409957
0.00135816
0.000388637
-0.00040358
0.00137274
0.000381706
-0.000396291
0.0013872
0.000374385
-0.000388848
0.0014013
0.000366536
-0.000380629
0.00141518
0.000358216
-0.000372099
0.0014288
0.000349408
-0.000363026
0.00144225
0.000340087
-0.000353536
0.00145547
0.000330296
-0.000343523
0.00146823
0.000320019
-0.000332777
0.00148079
0.000309099
-0.000321658
0.00149293
0.000297742
-0.000309879
0.0015046
0.000285651
-0.000297329
0.00151596
0.000273148
-0.000284499
0.00152709
0.000259874
-0.000271004
0.00153783
0.000246084
-0.000256828
0.00154815
0.000231641
-0.000241966
0.00155815
0.000216571
-0.000226564
0.00156762
0.000200814
-0.000210285
0.00157672
0.000184356
-0.000193457
0.00158541
0.000167148
-0.000175835
0.00159325
0.000149259
-0.000157102
0.00160083
0.000130619
-0.000138203
0.00160737
0.000111226
-0.000117762
0.0016139
9.13157e-05
-9.78501e-05
0.00161975
7.03287e-05
-7.61733e-05
0.00162504
4.86013e-05
-5.38914e-05
0.00162961
2.61233e-05
-3.06944e-05
0.00163342
2.67987e-06
-6.49403e-06
0.00163645
-2.14416e-05
1.84134e-05
0.00163902
-4.64722e-05
4.38994e-05
0.00164101
-7.22108e-05
7.02252e-05
0.00164231
-9.87997e-05
9.75017e-05
0.00164263
-0.000126433
0.000126114
0.0016422
-0.000154794
0.000155225
0.00164137
-0.000184081
0.000184911
0.00163999
-0.000214158
0.000215529
0.00163755
-0.000245227
0.000247676
0.00163438
-0.000277199
0.000280367
0.00163051
-0.000310056
0.000313923
0.00162637
-0.000343762
0.000347904
0.00162098
-0.000378566
0.000383958
0.00161495
-0.000414278
0.000420306
0.00160811
-0.000450893
0.000457729
0.00160043
-0.000488435
0.000496117
0.00159228
-0.000526779
0.000534929
0.00158355
-0.000566068
0.000574795
0.00157401
-0.00060643
0.000615978
0.00156347
-0.000647745
0.000658281
0.0015524
-0.000689999
0.000701071
0.00154057
-0.000733289
0.000745118
0.00152805
-0.000777597
0.000790113
0.00151476
-0.00082283
0.000836126
0.00150074
-0.000868866
0.000882878
0.00148695
-0.000915607
0.000929403
0.00147265
-0.000963862
0.000978161
0.00145758
-0.00101333
0.0010284
0.00144245
-0.00106383
0.00107897
0.00142728
-0.0011154
0.00113057
0.00141141
-0.00116862
0.00118449
0.00139681
-0.00122293
0.00123753
0.00138403
-0.00127809
0.00129087
-0.00134051
0.00137028
0.00135425
0.00123462
0.00040978
-0.00121857
0.00125053
0.000405697
0.00126629
0.00040131
0.00128191
0.00039659
0.00129736
0.000391475
0.0013126
0.000385993
0.00132761
0.000380123
0.00134241
0.000373836
0.00135698
0.000367141
0.00137136
0.000360003
0.00138548
0.000352417
0.00139932
0.000344369
0.00141289
0.00033584
0.00142617
0.000326811
0.00143916
0.00031731
0.00145189
0.000307282
0.00146426
0.000296736
0.00147635
0.000285645
0.001488
0.000274005
0.00149937
0.000261778
0.00151029
0.000248952
0.00152084
0.000235535
0.00153099
0.000221495
0.00154074
0.000206819
0.00155006
0.000191491
0.00155895
0.000175468
0.00156733
0.000158774
0.0015752
0.000141382
0.00158255
0.00012327
0.00158933
0.000104454
0.00159575
8.48956e-05
0.00160153
6.45406e-05
0.00160672
4.34178e-05
0.00161134
2.1497e-05
0.0016153
-1.27263e-06
0.00161866
-2.48087e-05
0.00162135
-4.91562e-05
0.00162342
-7.42807e-05
0.00162487
-0.000100255
0.00162557
-0.000127126
0.00162562
-0.000154852
0.00162498
-0.000183438
0.00162368
-0.000212858
0.00162166
-0.000243204
0.00161893
-0.000274473
0.00161552
-0.000306641
0.00161145
-0.000339691
0.00160658
-0.000373702
0.00160097
-0.000408669
0.00159461
-0.000444535
0.00158749
-0.000481315
0.00157971
-0.000518995
0.00157124
-0.000557596
0.001562
-0.000597191
0.00155204
-0.000637786
0.0015414
-0.000679361
0.00153002
-0.00072191
0.00151791
-0.00076548
0.0015051
-0.000810025
0.00149178
-0.000855542
0.00147821
-0.000902039
0.00146411
-0.000949759
0.00144952
-0.000998744
0.00143467
-0.00104898
0.00141978
-0.00110051
0.00140471
-0.00115354
0.00138993
-0.00120815
0.00137568
-0.00126384
-0.00132537
0.00136054
0.00122005
0.00039384
-0.00120411
0.00123586
0.000389889
0.00125153
0.000385639
0.00126706
0.000381057
0.00128242
0.000376121
0.00129759
0.000370819
0.00131258
0.000365139
0.00132735
0.000359064
0.0013419
0.000352585
0.00135622
0.000345683
0.00137029
0.000338346
0.0013841
0.000330562
0.00139763
0.000322315
0.00141085
0.00031359
0.00142378
0.000304377
0.0014364
0.00029466
0.00144871
0.00028443
0.00146068
0.00027367
0.00147232
0.000262368
0.00148359
0.000250505
0.00149447
0.00023807
0.00150497
0.000225043
0.00151505
0.000211408
0.00152472
0.00019715
0.00153396
0.000182252
0.00154273
0.000166698
0.00155103
0.000150473
0.00155885
0.000133562
0.00156617
0.000115951
0.001573
9.76269e-05
0.00157932
7.85747e-05
0.00158508
5.87744e-05
0.0015903
3.8201e-05
0.00159496
1.68407e-05
0.00159902
-5.33338e-06
0.00160247
-2.82573e-05
0.00160528
-5.19745e-05
0.0016075
-7.6497e-05
0.0016091
-0.00010185
0.00161003
-0.000128057
0.00161029
-0.000155119
0.00160989
-0.000183035
0.00160884
-0.000211812
0.00160712
-0.000241479
0.00160469
-0.000272046
0.00160156
-0.000303508
0.00159774
-0.000335867
0.00159318
-0.000369151
0.00158788
-0.000403367
0.00158184
-0.000438496
0.00157507
-0.000474545
0.0015676
-0.00051152
0.00155944
-0.000549432
0.00155056
-0.000588316
0.00154096
-0.000628189
0.00153065
-0.000669052
0.00151965
-0.000710909
0.00150797
-0.000753797
0.00149566
-0.000797711
0.00148279
-0.000842672
0.00146946
-0.000888717
0.00145568
-0.000935974
0.00144146
-0.000984529
0.00142692
-0.00103443
0.00141216
-0.00108576
0.00139729
-0.00113866
0.00138251
-0.00119337
0.00136808
-0.00124941
-0.00131102
0.00135374
0.00120627
0.000377993
-0.00119042
0.00122198
0.000374174
0.00123756
0.000370067
0.00125298
0.000365634
0.00126824
0.000360861
0.00128333
0.000355732
0.00129823
0.000350236
0.00131293
0.000344361
0.00132743
0.000338094
0.00134169
0.000331422
0.0013557
0.00032433
0.00136946
0.000316803
0.00138295
0.000308829
0.00139614
0.000300393
0.00140904
0.00029148
0.00142162
0.000282077
0.00143388
0.000272171
0.00144581
0.000261747
0.00145738
0.000250792
0.0014686
0.00023929
0.00147944
0.000227228
0.00148989
0.000214589
0.00149994
0.000201358
0.00150957
0.000187518
0.00151877
0.000173053
0.00152752
0.000157947
0.00153581
0.000142183
0.00154363
0.000125747
0.00155095
0.000108625
0.00155778
9.08006e-05
0.0015641
7.22592e-05
0.00156989
5.29808e-05
0.00157515
3.29446e-05
0.00157985
1.21372e-05
0.00158398
-9.45961e-06
0.00158751
-3.17909e-05
0.00159044
-5.49079e-05
0.00159277
-7.88279e-05
0.00159449
-0.000103565
0.00159557
-0.000129136
0.001596
-0.00015555
0.00159578
-0.000182815
0.00159491
-0.000210938
0.00159336
-0.000239934
0.00159113
-0.000269814
0.00158821
-0.000300586
0.00158459
-0.000332254
0.00158027
-0.000364832
0.00157524
-0.000398328
0.00156948
-0.000432743
0.00156302
-0.000468081
0.00155585
-0.000504353
0.00154799
-0.000541569
0.00153943
-0.000579753
0.00153016
-0.000618922
0.0015202
-0.000659092
0.00150956
-0.000700273
0.00149826
-0.000742495
0.00148633
-0.000785776
0.00147381
-0.000830153
0.00146076
-0.000875675
0.00144722
-0.000922434
0.00143322
-0.00097052
0.00141881
-0.00102003
0.00140413
-0.00107108
0.00138927
-0.00112381
0.0013744
-0.0011785
0.00135971
-0.00123472
-0.00129655
0.00134524
0.00119333
0.000362266
-0.0011776
0.00120893
0.000358569
0.0012244
0.000354599
0.00123972
0.000350316
0.00125488
0.000345702
0.00126986
0.000340745
0.00128467
0.000335433
0.00129927
0.000329753
0.00131367
0.000323694
0.00132785
0.000317244
0.0013418
0.000310387
0.00135549
0.000303111
0.00136892
0.000295401
0.00138206
0.000287245
0.00139492
0.000278627
0.00140746
0.000269533
0.00141968
0.00025995
0.00143157
0.000249862
0.0014431
0.000239255
0.00145428
0.000228114
0.00146508
0.000216426
0.0014755
0.000204173
0.00148551
0.000191341
0.00149512
0.000177914
0.00150429
0.000163876
0.00151303
0.000149211
0.00152131
0.000133903
0.00152912
0.000117936
0.00153645
0.000101295
0.00154329
8.39642e-05
0.00154962
6.5926e-05
0.00155544
4.71633e-05
0.00156072
2.7658e-05
0.00156547
7.3946e-06
0.00156964
-1.36321e-05
0.00157324
-3.53891e-05
0.00157625
-5.79191e-05
0.00157866
-8.12431e-05
0.00158047
-0.000105374
0.00158166
-0.000130325
0.00158222
-0.000156109
0.00158214
-0.000182734
0.00158141
-0.000210211
0.00158003
-0.00023855
0.00157798
-0.000267764
0.00157526
-0.000297861
0.00157185
-0.000328849
0.00156776
-0.000360739
0.00156297
-0.000393538
0.00155748
-0.000427256
0.0015513
-0.000461897
0.00154442
-0.000497476
0.00153685
-0.000534003
0.0015286
-0.000571497
0.00151965
-0.000609976
0.00151002
-0.000649459
0.00149971
-0.000689963
0.00148873
-0.000731517
0.0014771
-0.00077415
0.00146486
-0.000817908
0.00145203
-0.000862846
0.00143865
-0.00090905
0.00142474
-0.000956618
0.00141039
-0.00100567
0.00139566
-0.00105635
0.00138069
-0.00110883
0.00136562
-0.00116343
0.00135064
-0.00121974
-0.00128196
0.00133605
0.00118123
0.000346653
-0.00116562
0.00119672
0.000343075
0.00121208
0.000339239
0.0012273
0.000335101
0.00124235
0.000330646
0.00125724
0.00032586
0.00127194
0.00032073
0.00128645
0.000315246
0.00130075
0.000309393
0.00131483
0.000303161
0.00132868
0.000296536
0.00134229
0.000289506
0.00135563
0.000282055
0.00136871
0.000274172
0.00138149
0.000265842
0.00139397
0.000257051
0.00140614
0.000247784
0.00141797
0.000238026
0.00142947
0.000227763
0.0014406
0.00021698
0.00145136
0.000205662
0.00146174
0.000193793
0.00147173
0.000181358
0.0014813
0.00016834
0.00149045
0.000154725
0.00149917
0.000140497
0.00150743
0.000125639
0.00151523
0.000110134
0.00152256
9.39679e-05
0.0015294
7.71231e-05
0.00153575
5.95822e-05
0.00154158
4.13294e-05
0.00154689
2.23472e-05
0.00155167
2.61779e-06
0.00155588
-1.78445e-05
0.00155953
-3.90384e-05
0.00156261
-6.09943e-05
0.0015651
-8.37333e-05
0.00156699
-0.000107269
0.00156828
-0.000131614
0.00156895
-0.000156781
0.001569
-0.000182781
0.00156841
-0.000209623
0.00156718
-0.000237321
0.0015653
-0.000265883
0.00156276
-0.000295321
0.00155956
-0.000325644
0.00155568
-0.000356862
0.00155112
-0.000388984
0.00154589
-0.00042202
0.00153997
-0.00045598
0.00153337
-0.000490876
0.00152609
-0.00052672
0.00151812
-0.000563529
0.00150946
-0.00060132
0.00150012
-0.000640113
0.00149009
-0.000679929
0.00147937
-0.0007208
0.00146798
-0.000762759
0.00145593
-0.000805859
0.00144324
-0.000850159
0.00142994
-0.000895751
0.00141606
-0.00094274
0.00140166
-0.000991268
0.00138681
-0.0010415
0.00137161
-0.00109364
0.0013562
-0.00114803
0.00134079
-0.00120433
-0.00126671
0.00132553
0.0011699
0.000331122
-0.00115436
0.0011853
0.00032767
0.00120057
0.00032397
0.00121569
0.00031998
0.00123065
0.000315684
0.00124545
0.000311068
0.00126005
0.000306121
0.00127447
0.000300831
0.00128868
0.000295186
0.00130266
0.000289174
0.00131642
0.000282781
0.00132993
0.000275994
0.00134319
0.000268801
0.00135617
0.000261188
0.00136887
0.000253142
0.00138127
0.000244648
0.00139336
0.000235692
0.00140513
0.000226259
0.00141656
0.000216334
0.00142764
0.000205903
0.00143835
0.00019495
0.00144868
0.00018346
0.00145862
0.000171417
0.00146816
0.000158805
0.00147727
0.000145608
0.00148596
0.000131811
0.0014942
0.000117397
0.00150199
0.00010235
0.0015093
8.66516e-05
0.00151614
7.02867e-05
0.00152248
5.32375e-05
0.00152832
3.5488e-05
0.00153365
1.70213e-05
0.00153845
-2.18309e-06
0.0015427
-2.20891e-05
0.00154639
-4.27288e-05
0.00154951
-6.4122e-05
0.00155207
-8.62873e-05
0.00155404
-0.00010924
0.00155542
-0.000132991
0.00155619
-0.000157555
0.00155635
-0.000182943
0.0015559
-0.000209166
0.00155481
-0.000236236
0.00155309
-0.000264163
0.00155073
-0.000292958
0.00154771
-0.000322631
0.00154404
-0.000353193
0.00153971
-0.000384653
0.00153472
-0.000417022
0.00152904
-0.00045031
0.0015227
-0.00048453
0.00151567
-0.000519693
0.00150796
-0.000555815
0.00149955
-0.000592913
0.00149044
-0.000631007
0.00148064
-0.000670122
0.00147012
-0.000710288
0.00145891
-0.000751545
0.001447
-0.000793947
0.0014344
-0.000837561
0.00142113
-0.000882482
0.00140722
-0.000928825
0.00139269
-0.000976744
0.00137762
-0.00102642
0.00136208
-0.0010781
0.0013462
-0.00113215
0.00133016
-0.00118828
-0.00125059
0.00131404
0.00115925
0.000315647
-0.00114378
0.00117459
0.000312328
0.00118979
0.00030877
0.00120484
0.000304932
0.00121973
0.000300797
0.00123444
0.000296354
0.00124897
0.000291592
0.0012633
0.000286498
0.00127743
0.000281062
0.00129133
0.00027527
0.001305
0.00026911
0.00131843
0.000262569
0.00133159
0.000255634
0.00134449
0.000248291
0.00135711
0.000240528
0.00136942
0.000232329
0.00138143
0.000223682
0.00139312
0.000214571
0.00140448
0.000204981
0.00141548
0.000194897
0.00142613
0.000184306
0.0014364
0.000173191
0.00144628
0.000161536
0.00145576
0.000149324
0.00146482
0.000136541
0.00147347
0.000123169
0.00148167
0.000109193
0.00148942
9.45953e-05
0.00149672
7.9359e-05
0.00150354
6.34673e-05
0.00150987
4.69032e-05
0.00151571
2.96501e-05
0.00152104
1.16915e-05
0.00152585
-6.99194e-06
0.00153011
-2.6356e-05
0.00153384
-4.64503e-05
0.001537
-6.72912e-05
0.00153961
-8.88948e-05
0.00154165
-0.000111276
0.0015431
-0.000134448
0.00154397
-0.000158422
0.00154424
-0.000183213
0.0015439
-0.00020883
0.00154295
-0.000235286
0.00154138
-0.000262591
0.00153918
-0.000290758
0.00153635
-0.000319794
0.00153287
-0.000349712
0.00152874
-0.000380521
0.00152395
-0.000412232
0.00151849
-0.000444855
0.00151236
-0.000478401
0.00150555
-0.000512883
0.00149805
-0.000548316
0.00148986
-0.000584715
0.00148095
-0.000622102
0.00147133
-0.0006605
0.00146098
-0.000699943
0.00144991
-0.000740471
0.0014381
-0.00078214
0.00142556
-0.00082502
0.00141229
-0.00086921
0.00139829
-0.000914828
0.00138359
-0.000962039
0.0013682
-0.00101104
0.0013522
-0.00106209
0.00133566
-0.00111561
0.00131877
-0.00117139
-0.00123369
0.00130188
0.00114927
0.000300222
-0.00113385
0.00116456
0.000297038
0.00117971
0.000293625
0.0011947
0.000289942
0.00120952
0.000285973
0.00122417
0.000281706
0.00123863
0.00027713
0.0012529
0.000272235
0.00126695
0.000267008
0.00128078
0.000261438
0.00129438
0.000255512
0.00130773
0.000249218
0.00132082
0.000242542
0.00133364
0.000235471
0.00134618
0.000227991
0.00135842
0.000220089
0.00137035
0.000211751
0.00138196
0.000202961
0.00139324
0.000193705
0.00140417
0.000183969
0.00141474
0.000173737
0.00142493
0.000162993
0.00143475
0.000151722
0.00144416
0.000139908
0.00145317
0.000127533
0.00146176
0.000114582
0.00146991
0.000101039
0.00147762
8.6885e-05
0.00148488
7.21043e-05
0.00149167
5.66796e-05
0.00149798
4.05937e-05
0.0015038
2.38298e-05
0.00150912
6.37063e-06
0.00151392
-1.17914e-05
0.00151819
-3.06303e-05
0.00152193
-5.01894e-05
0.00152513
-7.04886e-05
0.00152777
-9.15419e-05
0.00152986
-0.000113364
0.00153138
-0.000135967
0.00153233
-0.000159366
0.00153268
-0.000183571
0.00153245
-0.000208596
0.00153161
-0.000234451
0.00153017
-0.000261147
0.00152811
-0.000288696
0.00152542
-0.000317107
0.0015221
-0.000346391
0.00151814
-0.000376558
0.00151352
-0.000407618
0.00150825
-0.00043958
0.0015023
-0.000472457
0.00149568
-0.000506259
0.00148836
-0.000541002
0.00148035
-0.000576699
0.00147162
-0.000613372
0.00146216
-0.000651045
0.00145197
-0.000689749
0.00144102
-0.000729524
0.00142931
-0.000770425
0.00141681
-0.000812523
0.00140351
-0.000855913
0.0013894
-0.000900716
0.00137446
-0.000947098
0.00135868
-0.000995267
0.00134209
-0.00104549
0.0013247
-0.00109823
0.0013066
-0.00115329
-0.00121498
0.00128789
0.00114001
0.000284851
-0.00112464
0.00115525
0.000281801
0.00117034
0.000278533
0.00118527
0.000275007
0.00120004
0.000271205
0.00121463
0.000267116
0.00122903
0.000262729
0.00124323
0.000258034
0.00125722
0.000253019
0.00127099
0.000247672
0.00128452
0.000241981
0.0012978
0.000235934
0.00131083
0.000229518
0.00132358
0.00022272
0.00133605
0.000215525
0.00134821
0.000207921
0.00136007
0.000199892
0.00137161
0.000191425
0.00138281
0.000182504
0.00139366
0.000173114
0.00140416
0.00016324
0.00141429
0.000152867
0.00142403
0.00014198
0.00143338
0.00013056
0.00144232
0.000118592
0.00145084
0.000106059
0.00145894
9.29441e-05
0.00146659
7.92304e-05
0.0014738
6.49006e-05
0.00148054
4.99375e-05
0.00148681
3.43239e-05
0.00149259
1.80422e-05
0.00149789
1.0736e-06
0.00150267
-1.65684e-05
0.00150693
-3.48929e-05
0.00151067
-5.39282e-05
0.00151388
-7.36952e-05
0.00151654
-9.42086e-05
0.00151866
-0.000115482
0.00152022
-0.000137529
0.00152122
-0.000160362
0.00152164
-0.000183994
0.00152148
-0.000208437
0.00152074
-0.000233702
0.00151939
-0.0002598
0.00151743
-0.000286742
0.00151487
-0.000314539
0.00151167
-0.000343199
0.00150785
-0.000372732
0.00150338
-0.000403149
0.00149826
-0.00043446
0.00149248
-0.000466674
0.00148602
-0.000499802
0.00147888
-0.000533859
0.00147103
-0.000568857
0.00146248
-0.000604816
0.00145319
-0.000641756
0.00144315
-0.000679708
0.00143233
-0.000718707
0.00142071
-0.000758805
0.00140825
-0.000800065
0.00139492
-0.000842578
0.00138066
-0.00088646
0.00136544
-0.000931873
0.00134919
-0.000979022
0.0013319
-0.0010282
0.00131354
-0.00107987
0.00129414
-0.00113389
-0.00119502
0.00127418
0.00113152
0.000269539
-0.00111621
0.0011467
0.000266622
0.00116173
0.0002635
0.00117661
0.00026013
0.00119132
0.000256496
0.00120585
0.000252585
0.00122019
0.000248389
0.00123433
0.000243895
0.00124825
0.000239093
0.00126195
0.000233971
0.00127542
0.000228517
0.00128863
0.000222718
0.00130159
0.000216563
0.00131427
0.000210038
0.00132667
0.000203129
0.00133876
0.000195823
0.00135055
0.000188105
0.00136202
0.000179961
0.00137314
0.000171375
0.00138393
0.000162333
0.00139435
0.000152818
0.0014044
0.000142816
0.00141407
0.000132311
0.00142334
0.000121285
0.00143221
0.000109722
0.00144067
9.76056e-05
0.00144869
8.49178e-05
0.00145628
7.16415e-05
0.00146342
5.77594e-05
0.00147011
4.32541e-05
0.00147632
2.8108e-05
0.00148206
1.23036e-05
0.00148731
-4.1783e-06
0.00149205
-2.13086e-05
0.00149628
-3.91245e-05
0.0015
-5.76453e-05
0.00150319
-7.68892e-05
0.00150586
-9.68716e-05
0.00150798
-0.000117606
0.00150956
-0.000139106
0.00151058
-0.000161385
0.00151104
-0.000184455
0.00151093
-0.000208327
0.00151024
-0.000233013
0.00150897
-0.000258525
0.0015071
-0.000284872
0.00150463
-0.000312065
0.00150154
-0.000340113
0.00149783
-0.000369025
0.00149349
-0.000398812
0.00148852
-0.000429481
0.00148289
-0.000461044
0.00147659
-0.000493509
0.00146962
-0.000526888
0.00146196
-0.000561194
0.00145358
-0.00059644
0.00144447
-0.000632645
0.0014346
-0.000669833
0.00142392
-0.000708033
0.00141241
-0.000747288
0.0014
-0.000787653
0.00138662
-0.000829206
0.00137221
-0.000872048
0.00135667
-0.000916329
0.00133989
-0.000962249
0.00132182
-0.00101012
0.0013024
-0.00106045
0.00128168
-0.00111318
-0.00117272
0.00125939
0.00112386
0.000254287
-0.0011086
0.00113898
0.000251504
0.00115395
0.000248527
0.00116876
0.000245314
0.00118341
0.000241848
0.00119788
0.000238117
0.00121216
0.000234111
0.00122623
0.00022982
0.00124009
0.000225232
0.00125373
0.000220337
0.00126712
0.000215121
0.00128027
0.000209573
0.00129315
0.000203681
0.00130576
0.00019743
0.00131808
0.000190808
0.0013301
0.000183801
0.00134181
0.000176396
0.0013532
0.000168576
0.00136425
0.000160327
0.00137494
0.000151633
0.00138528
0.000142478
0.00139525
0.000132848
0.00140484
0.000122725
0.00141403
0.000112093
0.00142282
0.000100935
0.00143119
8.92341e-05
0.00143913
7.6972e-05
0.00144664
6.41315e-05
0.00145371
5.06949e-05
0.00146032
3.66445e-05
0.00146646
2.19626e-05
0.00147214
6.63099e-06
0.00147732
-9.3612e-06
0.001482
-2.59929e-05
0.00148619
-4.33059e-05
0.00148986
-6.13192e-05
0.00149302
-8.00484e-05
0.00149566
-9.95086e-05
0.00149776
-0.000119714
0.00149933
-0.000140678
0.00150036
-0.000162412
0.00150084
-0.000184931
0.00150075
-0.000208244
0.00150011
-0.000232365
0.00149888
-0.000257303
0.00149708
-0.000283068
0.00149469
-0.000309672
0.0014917
-0.000337122
0.0014881
-0.000365428
0.00148389
-0.000394599
0.00147905
-0.000424643
0.00147357
-0.000455569
0.00146745
-0.000487384
0.00146066
-0.000520097
0.00145318
-0.000553718
0.001445
-0.000588257
0.00143608
-0.000623725
0.00142638
-0.000660139
0.00141587
-0.000697521
0.00140448
-0.000735898
0.00139214
-0.00077531
0.00137874
-0.000815813
0.00136418
-0.000857488
0.00134832
-0.000900468
0.00133103
-0.000944953
0.00131219
-0.000991283
0.0012917
-0.00103996
0.00126963
-0.00109111
-0.00114828
0.00124518
0.00111707
0.00023909
-0.00110187
0.00113213
0.000236442
0.00114705
0.000233612
0.0011618
0.000230557
0.00117639
0.00022726
0.0011908
0.000223711
0.00120501
0.000219898
0.00121902
0.000215811
0.00123281
0.00021144
0.00124638
0.000206773
0.0012597
0.000201798
0.00127277
0.000196503
0.00128558
0.000190875
0.0012981
0.000184902
0.00131034
0.00017857
0.00132228
0.000171865
0.0013339
0.000164773
0.0013452
0.00015728
0.00135615
0.000149369
0.00136676
0.000141025
0.00137701
0.000132232
0.00138688
0.000122974
0.00139637
0.000113236
0.00140546
0.000102999
0.00141415
9.22459e-05
0.00142243
8.09601e-05
0.00143028
6.91234e-05
0.00143769
5.67179e-05
0.00144466
4.37254e-05
0.00145118
3.01279e-05
0.00145723
1.59071e-05
0.00146282
1.04358e-06
0.00146791
-1.44549e-05
0.00147252
-3.05984e-05
0.00147663
-4.74162e-05
0.00148024
-6.49287e-05
0.00148334
-8.31514e-05
0.00148593
-0.000102099
0.001488
-0.000121784
0.00148955
-0.000142222
0.00149056
-0.000163425
0.00149103
-0.000185404
0.00149096
-0.000208173
0.00149034
-0.000231741
0.00148915
-0.00025612
0.00148741
-0.00028132
0.00148508
-0.00030735
0.00148218
-0.000334219
0.00147869
-0.000361935
0.0014746
-0.000390507
0.0014699
-0.000419942
0.00146457
-0.000450247
0.00145862
-0.000481427
0.00145201
-0.000513489
0.00144473
-0.000546437
0.00143675
-0.000580277
0.00142804
-0.000615014
0.00141855
-0.000650653
0.00140823
-0.000687203
0.00139701
-0.000724672
0.00138477
-0.000763075
0.0013714
-0.000802442
0.00135675
-0.000842836
0.00134067
-0.000884388
0.00132303
-0.000927311
0.00130369
-0.000971948
0.00128234
-0.00101861
0.00125839
-0.00106716
-0.00111763
0.00122775
0.00111119
0.000223944
-0.00109605
0.0011262
0.000221433
0.00114107
0.000218752
0.00115577
0.000215857
0.00117029
0.000212732
0.00118464
0.000209365
0.00119879
0.000205747
0.00121273
0.000201868
0.00122646
0.000197716
0.00123995
0.00019328
0.0012532
0.000188549
0.00126619
0.00018351
0.00127892
0.00017815
0.00129136
0.000172458
0.00130351
0.000166419
0.00131536
0.000160019
0.00132689
0.000153245
0.00133809
0.00014608
0.00134894
0.00013851
0.00135945
0.000130519
0.00136959
0.000122091
0.00137936
0.000113209
0.00138874
0.000103857
0.00139772
9.40165e-05
0.00140629
8.36709e-05
0.00141445
7.28019e-05
0.00142218
6.13913e-05
0.00142948
4.94208e-05
0.00143633
3.68718e-05
0.00144274
2.37259e-05
0.00144868
9.96432e-06
0.00145415
-4.43184e-06
0.00145914
-1.94417e-05
0.00146364
-3.51018e-05
0.00146766
-5.14324e-05
0.00147118
-6.84519e-05
0.00147421
-8.61764e-05
0.00147673
-0.00010462
0.00147874
-0.000123797
0.00148024
-0.000143721
0.00148122
-0.000164404
0.00148167
-0.000185858
0.0014816
-0.000208096
0.00148098
-0.000231127
0.00147983
-0.000254963
0.00147812
-0.000279613
0.00147586
-0.000305087
0.00147303
-0.000331391
0.00146963
-0.000358536
0.00146565
-0.000386527
0.00146108
-0.00041537
0.0014559
-0.000445072
0.00145011
-0.000475636
0.00144369
-0.000507064
0.00143661
-0.000539359
0.00142885
-0.000572518
0.00142037
-0.000606538
0.00141113
-0.000641411
0.00140105
-0.000677124
0.00139004
-0.000713661
0.00137798
-0.000751014
0.00136474
-0.000789198
0.00135019
-0.000828285
0.00133423
-0.000868429
0.00131676
-0.000909842
0.00129754
-0.000952724
0.00127579
-0.000996866
0.0012501
-0.00104147
-0.00108402
0.00121649
0.00110628
0.000208843
-0.00109118
0.00112124
0.000206471
0.00113605
0.00020394
0.0011507
0.000201208
0.00116517
0.000198257
0.00117946
0.000195077
0.00119355
0.000191657
0.00120743
0.000187987
0.00122109
0.000184058
0.00123451
0.000179857
0.00124769
0.000175373
0.00126061
0.000170593
0.00127325
0.000165506
0.00128561
0.000160098
0.00129767
0.000154356
0.00130943
0.000148266
0.00132086
0.000141813
0.00133195
0.000134983
0.00134271
0.000127759
0.0013531
0.000120125
0.00136312
0.000112066
0.00137277
0.000103564
0.00138202
9.46024e-05
0.00139088
8.51629e-05
0.00139932
7.52276e-05
0.00140734
6.47781e-05
0.00141494
5.37957e-05
0.0014221
4.22615e-05
0.00142881
3.01565e-05
0.00143508
1.74616e-05
0.00144089
4.15747e-06
0.00144622
-9.76469e-06
0.00145107
-2.42979e-05
0.00145545
-3.94791e-05
0.00145935
-5.53288e-05
0.00146276
-7.18633e-05
0.00146568
-8.90984e-05
0.00146811
-0.000107049
0.00147004
-0.000125728
0.00147147
-0.00014515
0.00147239
-0.000165326
0.0014728
-0.00018627
0.0014727
-0.000207991
0.00147207
-0.000230502
0.00147092
-0.000253811
0.00146924
-0.000277929
0.00146701
-0.000302863
0.00146424
-0.000328622
0.00146092
-0.000355212
0.00145704
-0.000382642
0.00145258
-0.000410915
0.00144754
-0.000440036
0.00144191
-0.000470007
0.00143568
-0.000500829
0.00142882
-0.000532497
0.0014213
-0.000565002
0.00141309
-0.000598328
0.00140413
-0.000632446
0.00139433
-0.000667327
0.00138361
-0.000702938
0.00137187
-0.000739276
0.00135905
-0.000776384
0.00134514
-0.000814374
0.0013301
-0.000853384
0.00131368
-0.000893422
0.001295
-0.000934048
0.00127185
-0.000973711
0.00124039
-0.00101001
-0.00103523
0.0011916
0.00110238
0.000193783
-0.00108732
0.0011173
0.000191551
0.00113207
0.000189175
0.00114667
0.000186607
0.00116109
0.000183833
0.00117533
0.000180841
0.00118936
0.000177622
0.00120318
0.000174166
0.00121678
0.000170463
0.00123013
0.0001665
0.00124324
0.000162268
0.00125608
0.000157753
0.00126864
0.000152943
0.00128092
0.000147825
0.00129289
0.000142385
0.00130454
0.00013661
0.00131587
0.000130485
0.00132686
0.000123994
0.0013375
0.000117122
0.00134777
0.000109852
0.00135767
0.000102168
0.00136718
9.4052e-05
0.0013763
8.54864e-05
0.00138501
7.6453e-05
0.0013933
6.69331e-05
0.00140117
5.69076e-05
0.00140861
4.63572e-05
0.00141561
3.52623e-05
0.00142216
2.36033e-05
0.00142826
1.13604e-05
0.00143391
-1.4865e-06
0.00143907
-1.493e-05
0.00144377
-2.89933e-05
0.00144799
-4.37017e-05
0.00145174
-5.90759e-05
0.00145501
-7.51326e-05
0.0014578
-9.18871e-05
0.0014601
-0.000109354
0.00146192
-0.000127547
0.00146325
-0.000146479
0.00146409
-0.000166163
0.00146443
-0.000186611
0.00146427
-0.000207832
0.00146361
-0.000229838
0.00146243
-0.000252638
0.00146075
-0.000276241
0.00145854
-0.000300655
0.0014558
-0.000325888
0.00145254
-0.000351946
0.00144873
-0.000378837
0.00144438
-0.000406564
0.00143948
-0.000435133
0.00143402
-0.000464542
0.00142798
-0.000494788
0.00142134
-0.00052586
0.00141407
-0.000557736
0.00140613
-0.000590388
0.00139747
-0.000623779
0.00138802
-0.000657885
0.00137779
-0.000692707
0.00136682
-0.000728304
0.00135521
-0.000764772
0.00134302
-0.000802186
0.00133
-0.000840362
0.00131508
-0.000878499
0.00129566
-0.000914633
0.00126699
-0.000945045
0.00122156
-0.000964578
-0.000958823
0.00114515
0.00109958
0.000178758
-0.00108456
0.00111446
0.00017667
0.00112919
0.000174449
0.00114375
0.000172049
0.00115813
0.000169455
0.00117231
0.000166655
0.00118629
0.000163641
0.00120006
0.000160402
0.00121359
0.000156929
0.00122688
0.00015321
0.00123992
0.000149233
0.00125268
0.000144988
0.00126516
0.000140461
0.00127735
0.000135639
0.00128923
0.000130508
0.00130078
0.000125055
0.001312
0.000119264
0.00132288
0.000113121
0.00133339
0.000106608
0.00134353
9.97096e-05
0.00135329
9.24082e-05
0.00136266
8.46859e-05
0.00137162
7.65242e-05
0.00138017
6.79043e-05
0.0013883
5.88068e-05
0.00139599
4.92118e-05
0.00140325
3.90993e-05
0.00141006
2.84489e-05
0.00141643
1.724e-05
0.00142234
5.45185e-06
0.00142778
-6.93004e-06
0.00143275
-1.98996e-05
0.00143725
-3.34941e-05
0.00144128
-4.77343e-05
0.00144484
-6.26389e-05
0.00144794
-7.82248e-05
0.00145056
-9.45074e-05
0.0014527
-0.000111501
0.00145438
-0.00012922
0.00145558
-0.000147677
0.0014563
-0.000166883
0.00145654
-0.000186851
0.00145629
-0.000207589
0.00145556
-0.000229109
0.00145434
-0.000251419
0.00145263
-0.000274527
0.00145042
-0.000298442
0.0014477
-0.000323171
0.00144447
-0.000348721
0.00144074
-0.0003751
0.00143648
-0.000402311
0.00143171
-0.000430356
0.0014264
-0.00045923
0.00142053
-0.000488923
0.00141409
-0.000519417
0.00140704
-0.000550687
0.00139937
-0.000582717
0.0013911
-0.000615511
0.00138233
-0.000649117
0.00137325
-0.000683628
0.0013641
-0.000719156
0.00135502
-0.000755686
0.00134565
-0.000792823
0.00133458
-0.000829287
0.00131861
-0.000862529
0.00129228
-0.0008883
0.00124732
-0.000900088
0.00117128
-0.000888535
-0.000836016
0.00104847
0.00109796
0.000163759
-0.00108296
0.00111281
0.000161817
0.00112751
0.000159755
0.00114203
0.000157527
0.00115637
0.000155116
0.00117051
0.000152512
0.00118444
0.000149707
0.00119816
0.000146691
0.00121163
0.000143453
0.00122486
0.000139982
0.00123782
0.000136268
0.00125051
0.000132299
0.00126291
0.000128061
0.00127501
0.000123542
0.00128679
0.000118728
0.00129824
0.000113605
0.00130935
0.000108157
0.0013201
0.00010237
0.00133048
9.62262e-05
0.00134048
8.97087e-05
0.00135009
8.27998e-05
0.00135929
7.54809e-05
0.00136809
6.77331e-05
0.00137645
5.95364e-05
0.00138439
5.08708e-05
0.00139189
4.17153e-05
0.00139894
3.2049e-05
0.00140553
2.18503e-05
0.00141168
1.10977e-05
0.00141736
-2.31036e-07
0.00142257
-1.21366e-05
0.0014273
-2.46379e-05
0.00143157