/*--------------------------------*- C++ -*----------------------------------*\
| =========                 |                                                 |
| \\      /  F ield         | OpenFOAM: The Open Source CFD Toolbox           |
|  \\    /   O peration     | Version:  2312                                  |
|   \\  /    A nd           | Website:  www.openfoam.com                      |
|    \\/     M anipulation  |                                                 |
\*---------------------------------------------------------------------------*/
FoamFile
{
    version     2.0;
    format      ascii;
    arch        "LSB;label=32;scalar=64";
    class       volVectorField;
    location    "1300";
    object      U;
}
// * * * * * * * * * * * * * * * * * * * * * * * * * * * * * * * * * * * * * //

dimensions      [0 1 -1 0 0 0 0];

internalField   nonuniform List<vector> 
76025
(
(0.0407333 -0.00970161 0)
(0.0409656 -0.00971691 9.31565e-22)
(0.041201 -0.00972467 0)
(0.0414405 -0.00972762 0)
(0.0416702 -0.00972386 -1.73251e-21)
(0.0419158 -0.00971167 -3.34014e-21)
(0.0421524 -0.0096955 5.77715e-21)
(0.0423934 -0.00966989 -2.44529e-21)
(0.0426363 -0.00964063 -7.79626e-22)
(0.0428805 -0.00960675 7.588e-22)
(0.0431229 -0.00956556 4.31313e-24)
(0.0433663 -0.00951609 2.13546e-21)
(0.0436123 -0.00946192 -2.8507e-21)
(0.0438592 -0.00939787 0)
(0.0441161 -0.00932701 6.5665e-22)
(0.0443629 -0.00925379 0)
(0.0446162 -0.00916832 0)
(0.0448642 -0.0090803 0)
(0.0451138 -0.00898114 5.91051e-22)
(0.0453568 -0.00888276 -5.62523e-22)
(0.045604 -0.00876933 -5.43142e-22)
(0.0458571 -0.00864897 -1.57995e-21)
(0.0461069 -0.00852358 1.04593e-21)
(0.0463569 -0.00839042 1.45691e-21)
(0.0466064 -0.00825196 -3.87005e-23)
(0.0468502 -0.00811107 4.12153e-22)
(0.0471019 -0.00795204 -1.31089e-21)
(0.0473432 -0.00779419 1.29317e-21)
(0.0475822 -0.00762354 -4.10491e-22)
(0.0478162 -0.00744245 3.929e-22)
(0.0480466 -0.00726586 3.73242e-22)
(0.0482761 -0.00708078 -6.8623e-22)
(0.0485105 -0.00687385 1.01173e-21)
(0.0487371 -0.00667602 1.387e-22)
(0.0489575 -0.006464 -7.36379e-22)
(0.0491683 -0.00625757 1.30525e-23)
(0.0493752 -0.00603529 1.27867e-22)
(0.0495873 -0.0057886 -5.43551e-23)
(0.0497977 -0.00555139 3.16928e-24)
(0.0499999 -0.00530128 6.54717e-23)
(0.050193 -0.0050545 -4.19306e-23)
(0.0503837 -0.00479159 1.77089e-23)
(0.0505825 -0.00450101 -3.06269e-23)
(0.050778 -0.00422073 4.92451e-23)
(0.050964 -0.00392976 3.24286e-23)
(0.0511455 -0.00363994 -6.56987e-23)
(0.0513322 -0.00332423 -2.47279e-23)
(0.0515218 -0.00301327 3.65229e-23)
(0.0517023 -0.00269644 2.54799e-24)
(0.0518803 -0.00237185 1.14479e-23)
(0.0520572 -0.00203765 -2.16079e-22)
(0.0522338 -0.00168791 -1.19167e-22)
(0.0524155 -0.00132309 1.71849e-22)
(0.0525999 -0.00094436 0)
(0.0527829 -0.000560224 -2.38291e-22)
(0.0529642 -0.000179821 -2.90016e-22)
(0.0531493 0.000223657 2.38351e-23)
(0.0533373 0.000639836 -3.42834e-22)
(0.0535224 0.00107628 4.35676e-22)
(0.0537075 0.00152856 -1.34072e-21)
(0.0539052 0.00199968 -1.01118e-21)
(0.0541261 0.002491 -9.85552e-24)
(0.0543534 0.00300318 0)
(0.0545844 0.00353974 3.42656e-21)
(0.0548389 0.00410784 -1.49121e-21)
(0.0551167 0.00467496 7.79639e-22)
(0.0554019 0.00530856 -1.81763e-21)
(0.055727 0.00603507 2.02225e-21)
(0.0562411 0.00670572 4.55893e-21)
(0.0407078 -0.0100979 9.82034e-22)
(0.0409517 -0.0101135 2.85751e-21)
(0.041198 -0.0101212 -3.80473e-21)
(0.0414468 -0.0101212 0)
(0.0416951 -0.0101168 4.43398e-21)
(0.041947 -0.0101038 -7.74171e-23)
(0.0421992 -0.0100854 -3.43081e-21)
(0.0424511 -0.0100595 0)
(0.0427049 -0.0100264 4.51874e-24)
(0.0429597 -0.00998706 -7.84365e-22)
(0.0432161 -0.00994134 7.62803e-22)
(0.0434726 -0.0098885 7.29807e-24)
(0.0437285 -0.00982903 0)
(0.0439845 -0.00976262 0)
(0.0442419 -0.00968672 1.30568e-21)
(0.0444992 -0.00960639 -3.30008e-21)
(0.0447574 -0.00951635 -6.27761e-22)
(0.045015 -0.00942109 1.81154e-21)
(0.0452724 -0.00931662 -1.20388e-21)
(0.0455276 -0.00920677 5.78788e-22)
(0.0457826 -0.00908863 -5.26031e-22)
(0.0460361 -0.00896285 1.08716e-21)
(0.0462887 -0.00882997 -1.0085e-21)
(0.0465404 -0.00868966 1.47849e-21)
(0.0467912 -0.00854178 -9.72563e-22)
(0.0470404 -0.00838803 -1.35868e-21)
(0.0472882 -0.00822528 8.96828e-22)
(0.0475325 -0.00805722 0)
(0.0477737 -0.00788123 0)
(0.0480115 -0.00769712 3.75995e-22)
(0.0482484 -0.00750362 0)
(0.0484853 -0.00730469 3.38815e-22)
(0.0487179 -0.0070987 -3.16397e-22)
(0.0489461 -0.0068882 4.69263e-22)
(0.0491702 -0.00667158 8.03514e-24)
(0.0493911 -0.00644593 1.36938e-22)
(0.0496091 -0.00621025 0)
(0.0498236 -0.00596617 2.10399e-22)
(0.050036 -0.00571732 -1.41502e-22)
(0.0502445 -0.00546311 1.08636e-22)
(0.050449 -0.00520048 -5.60177e-23)
(0.0506508 -0.00492795 2.97677e-24)
(0.0508507 -0.00464841 -1.25602e-23)
(0.0510485 -0.00436662 1.15218e-23)
(0.0512437 -0.00407662 -5.40137e-23)
(0.051437 -0.00377704 1.73792e-23)
(0.0516299 -0.00346681 1.44354e-25)
(0.0518225 -0.00315354 -7.98395e-24)
(0.0520121 -0.00283119 6.27517e-23)
(0.0521996 -0.00249803 3.85289e-24)
(0.0523856 -0.00215486 1.619e-22)
(0.0525709 -0.00179983 -8.5062e-23)
(0.0527577 -0.00143436 -3.00894e-22)
(0.0529464 -0.00106193 2.06258e-22)
(0.0531361 -0.000681659 0)
(0.0533261 -0.000287274 9.3704e-22)
(0.0535182 0.000119925 4.56319e-23)
(0.0537127 0.000537276 -3.65997e-22)
(0.0539093 0.000966607 -4.35855e-22)
(0.0541104 0.00141176 0)
(0.0543201 0.00188248 4.79194e-22)
(0.0545454 0.00236998 1.68164e-21)
(0.0547839 0.00286938 0)
(0.0550352 0.00338961 -1.37597e-21)
(0.0553062 0.00393718 8.01351e-22)
(0.0556001 0.00451121 -1.67643e-21)
(0.0559207 0.00512156 8.74527e-22)
(0.0562676 0.00577852 -2.04932e-21)
(0.0567275 0.0063815 -2.2939e-21)
(0.0406821 -0.0105291 -5.00346e-21)
(0.0409361 -0.0105442 3.01672e-21)
(0.041193 -0.010551 -9.67574e-22)
(0.041452 -0.0105501 3.72365e-21)
(0.0417132 -0.0105427 -4.62134e-21)
(0.0419755 -0.0105286 -3.52415e-21)
(0.0422393 -0.0105076 4.37469e-21)
(0.0425045 -0.0104796 0)
(0.0427707 -0.0104444 3.83247e-24)
(0.0430378 -0.0104021 0)
(0.0433055 -0.0103526 -7.68469e-22)
(0.0435734 -0.0102959 7.5095e-22)
(0.0438411 -0.0102318 3.58015e-21)
(0.0441082 -0.0101606 -2.85284e-21)
(0.0443747 -0.0100817 6.84306e-22)
(0.0446413 -0.00999521 1.95904e-21)
(0.0449076 -0.00990116 -6.53877e-22)
(0.0451736 -0.00979939 -6.20453e-22)
(0.0454389 -0.00969014 -1.75746e-21)
(0.0457036 -0.00957289 1.16881e-21)
(0.0459668 -0.00944831 5.46965e-22)
(0.0462283 -0.00931624 -1.04499e-21)
(0.0464881 -0.00917668 5.40747e-22)
(0.0467463 -0.00902967 4.85831e-22)
(0.0470027 -0.0088753 0)
(0.0472569 -0.00871374 -4.46042e-22)
(0.0475082 -0.00854525 -4.20895e-22)
(0.047757 -0.00836951 4.43965e-22)
(0.0480033 -0.0081862 0)
(0.0482472 -0.00799565 -7.52524e-22)
(0.0484891 -0.00779722 3.49179e-22)
(0.0487284 -0.00759283 -1.60388e-23)
(0.0489642 -0.00738265 0)
(0.049197 -0.00716591 -1.53438e-22)
(0.0494266 -0.00694328 4.11801e-22)
(0.0496535 -0.0067116 -2.65577e-22)
(0.0498769 -0.00647234 0)
(0.0500972 -0.00622549 -1.49579e-22)
(0.0503152 -0.00597136 1.38373e-22)
(0.0505304 -0.00571073 2.0489e-23)
(0.0507424 -0.00544264 0)
(0.0509514 -0.00516719 2.80807e-23)
(0.0511584 -0.00488416 1.02264e-23)
(0.0513637 -0.00459379 -9.45631e-24)
(0.0515669 -0.00429556 4.33352e-23)
(0.0517678 -0.00398953 1.17146e-23)
(0.051967 -0.00367564 -1.62208e-23)
(0.0521649 -0.00335468 -1.92233e-23)
(0.0523609 -0.00302579 3.40893e-23)
(0.052555 -0.00268836 -3.81565e-23)
(0.052748 -0.0023421 -6.19678e-23)
(0.0529407 -0.0019862 1.81137e-22)
(0.0531342 -0.00162052 0)
(0.0533293 -0.00124542 2.55173e-22)
(0.0535256 -0.000860227 -1.3201e-23)
(0.0537232 -0.000464658 -3.44998e-22)
(0.0539234 -5.85137e-05 -3.85557e-22)
(0.0541271 0.000358844 8.07968e-22)
(0.0543349 0.000789554 1.90949e-23)
(0.0545487 0.0012357 4.91213e-22)
(0.0547718 0.00169876 -1.07071e-21)
(0.0550086 0.00217597 -5.52727e-22)
(0.0552599 0.00266904 6.32306e-23)
(0.0555268 0.00318144 -6.61851e-22)
(0.0558138 0.00371603 -7.23232e-22)
(0.0561255 0.00427283 -2.44453e-21)
(0.0564705 0.00485806 0)
(0.0568367 0.00548466 -1.08452e-21)
(0.0573206 0.00608613 1.06535e-21)
(0.040657 -0.0109888 0)
(0.0409228 -0.0110029 1.01755e-21)
(0.0411915 -0.0110084 4.91125e-21)
(0.0414617 -0.0110061 -3.90022e-21)
(0.0417339 -0.0109967 -2.76733e-21)
(0.0420077 -0.0109803 4.59605e-21)
(0.0422833 -0.0109566 -8.85636e-22)
(0.0425603 -0.0109257 8.56021e-22)
(0.0428385 -0.0108875 8.3495e-22)
(0.0431175 -0.0108419 3.18554e-21)
(0.0433969 -0.0107887 -3.16807e-21)
(0.0436765 -0.0107279 -2.98693e-21)
(0.043956 -0.0106594 7.97045e-22)
(0.0442353 -0.0105831 2.83895e-21)
(0.044514 -0.0104989 -2.07508e-21)
(0.0447919 -0.0104069 6.56872e-22)
(0.045069 -0.010307 -6.33596e-22)
(0.045345 -0.0101991 -6.10644e-22)
(0.0456199 -0.0100834 1.7687e-21)
(0.0458935 -0.00995985 -6.02389e-22)
(0.0461656 -0.00982844 -5.57603e-22)
(0.046436 -0.00968921 0)
(0.0467045 -0.00954228 -9.81206e-22)
(0.0469708 -0.00938777 5.03022e-22)
(0.0472348 -0.00922578 9.13097e-22)
(0.0474962 -0.00905644 8.49092e-22)
(0.047755 -0.00887974 -1.7277e-21)
(0.0480109 -0.00869564 8.12132e-22)
(0.0482641 -0.00850423 0)
(0.0485143 -0.00830565 7.32535e-22)
(0.0487617 -0.00810013 -1.942e-23)
(0.049006 -0.00788808 -6.73675e-22)
(0.0492475 -0.00766948 2.95735e-22)
(0.0494859 -0.00744425 -7.12104e-22)
(0.0497209 -0.00721287 1.49377e-22)
(0.0499532 -0.00697257 0)
(0.0501821 -0.006725 0)
(0.0504079 -0.00647023 -4.51463e-23)
(0.0506308 -0.00620852 -4.34952e-23)
(0.0508507 -0.00594026 -1.6782e-23)
(0.0510677 -0.00566522 4.38295e-25)
(0.0512818 -0.0053832 -1.32918e-23)
(0.0514935 -0.00509397 0)
(0.0517031 -0.00479781 -3.63659e-24)
(0.0519104 -0.00449484 0)
(0.0521155 -0.00418481 -1.03487e-23)
(0.0523189 -0.00386731 9.71171e-24)
(0.0525209 -0.00354236 -3.39771e-23)
(0.0527215 -0.00320979 0)
(0.0529209 -0.00286899 -6.93497e-23)
(0.0531197 -0.00251943 6.84949e-23)
(0.0533184 -0.00216078 -1.83136e-22)
(0.0535177 -0.00179281 0)
(0.0537185 -0.00141567 -8.20209e-22)
(0.053921 -0.00102926 -1.22502e-23)
(0.0541258 -0.000633185 3.19623e-22)
(0.0543337 -0.00022658 3.58246e-22)
(0.0545459 0.000191028 0)
(0.0547633 0.000620569 0)
(0.0549877 0.00106292 -4.96084e-22)
(0.0552217 0.00151916 1.08086e-21)
(0.0554683 0.00198923 1.17653e-21)
(0.0557295 0.00247365 0)
(0.0560079 0.00297357 -1.37212e-21)
(0.056308 0.00349125 0)
(0.0566343 0.00402848 2.53456e-21)
(0.0569965 0.00458854 -8.59315e-22)
(0.0573839 0.00518391 -1.06242e-21)
(0.0578894 0.00575138 -1.11962e-21)
(0.0406398 -0.0114749 0)
(0.0409174 -0.0114877 0)
(0.0411982 -0.0114915 1.0134e-21)
(0.0414804 -0.0114871 -3.89197e-21)
(0.0417645 -0.0114753 4.82588e-21)
(0.0420503 -0.011456 -9.29389e-22)
(0.0423376 -0.0114293 0)
(0.0426263 -0.0113949 -8.74786e-22)
(0.0429163 -0.0113529 0)
(0.0432071 -0.011303 -1.61225e-21)
(0.0434984 -0.0112453 5.63161e-23)
(0.04379 -0.0111796 1.55412e-21)
(0.0440816 -0.0111058 0)
(0.0443728 -0.0110239 -1.40434e-21)
(0.0446634 -0.0109339 4.13245e-21)
(0.0449531 -0.0108357 -2.67025e-21)
(0.0452417 -0.0107293 3.20691e-21)
(0.0455289 -0.0106147 -6.33013e-22)
(0.0458144 -0.010492 5.84827e-22)
(0.0460982 -0.0103612 -5.76781e-22)
(0.0463801 -0.0102223 -5.32577e-22)
(0.0466598 -0.0100755 1.58756e-21)
(0.0469373 -0.00992071 1.00366e-21)
(0.0472122 -0.00975821 0)
(0.0474845 -0.00958805 -8.95553e-22)
(0.0477539 -0.00941034 -4.01179e-22)
(0.0480204 -0.00922516 1.28119e-21)
(0.0482837 -0.00903267 -4.04596e-22)
(0.0485437 -0.00883298 7.27761e-22)
(0.0488006 -0.00862625 -1.09499e-21)
(0.0490541 -0.00841267 3.23822e-22)
(0.0493043 -0.00819247 -1.51602e-22)
(0.0495513 -0.00796585 0)
(0.0497949 -0.00773293 1.40767e-22)
(0.0500348 -0.00749378 1.29651e-22)
(0.0502719 -0.00724613 0)
(0.0505055 -0.00699145 -9.42399e-23)
(0.0507357 -0.00673004 1.27193e-22)
(0.0509628 -0.00646201 -8.04389e-23)
(0.0511869 -0.00618745 3.17949e-23)
(0.051408 -0.0059063 3.13964e-25)
(0.0516264 -0.00561845 1.41128e-23)
(0.0518422 -0.0053238 -4.57361e-24)
(0.0520558 -0.0050224 -1.25586e-23)
(0.0522672 -0.0047142 -1.15685e-24)
(0.0524766 -0.00439898 -1.02233e-23)
(0.0526845 -0.00407653 0)
(0.052891 -0.00374678 2.82432e-23)
(0.0530964 -0.00340957 3.5812e-24)
(0.053301 -0.00306458 -6.18056e-23)
(0.0535053 -0.00271146 0)
(0.0537099 -0.00234999 -1.17162e-22)
(0.0539154 -0.00197991 1.15738e-22)
(0.0541224 -0.00160112 2.78102e-22)
(0.0543316 -0.00121334 0)
(0.0545436 -0.000816265 -7.2979e-22)
(0.0547591 -0.000409354 7.88613e-22)
(0.0549791 7.68269e-06 -8.62133e-22)
(0.0552048 0.000435438 -2.33691e-23)
(0.0554377 0.000874392 0)
(0.0556799 0.0013251 -5.71219e-22)
(0.0559341 0.00178747 5.95235e-22)
(0.056203 0.00226174 6.46938e-22)
(0.0564898 0.00274841 1.38337e-21)
(0.0567995 0.00324893 -2.22887e-21)
(0.0571371 0.00376457 1.61363e-21)
(0.0575131 0.00429671 -8.35749e-22)
(0.0579202 0.00486086 8.50258e-22)
(0.0584447 0.0053804 3.18621e-21)
(0.0406302 -0.0119897 -4.30965e-21)
(0.0409201 -0.0120012 1.03046e-22)
(0.0412133 -0.0120032 4.19183e-21)
(0.0415081 -0.0119964 0)
(0.0418048 -0.0119818 -9.75255e-22)
(0.0421032 -0.0119593 0)
(0.042403 -0.011929 1.80165e-21)
(0.042704 -0.0118907 -5.07081e-23)
(0.0430061 -0.0118443 -2.58555e-21)
(0.043309 -0.0117898 8.20904e-22)
(0.0436124 -0.0117269 8.02989e-22)
(0.043916 -0.0116557 7.63879e-22)
(0.0442194 -0.0115761 0)
(0.0445224 -0.011488 0)
(0.0448247 -0.0113915 -6.96129e-22)
(0.045126 -0.0112865 -6.70473e-22)
(0.0454259 -0.0111731 1.25176e-21)
(0.0457243 -0.0110512 -1.25033e-21)
(0.0460208 -0.010921 -1.1754e-21)
(0.0463153 -0.0107823 1.10433e-21)
(0.0466074 -0.0106354 -2.17924e-21)
(0.046897 -0.0104804 2.89205e-23)
(0.0471838 -0.0103173 9.92176e-22)
(0.0474678 -0.0101463 4.6069e-22)
(0.0477487 -0.00996755 8.73864e-22)
(0.0480263 -0.00978113 -8.76073e-22)
(0.0483006 -0.00958722 -7.86138e-22)
(0.0485713 -0.009386 7.89005e-22)
(0.0488384 -0.00917766 0)
(0.049102 -0.00896232 0)
(0.0493618 -0.00874023 -7.91082e-22)
(0.049618 -0.00851157 3.36908e-23)
(0.0498706 -0.00827661 2.88634e-22)
(0.0501194 -0.00803556 2.43977e-22)
(0.0503645 -0.00778781 -2.43677e-22)
(0.0506062 -0.00753211 0)
(0.0508444 -0.00726947 9.51949e-23)
(0.0510791 -0.00700034 1.09735e-22)
(0.0513104 -0.00672479 -7.20554e-23)
(0.0515386 -0.00644289 -2.2522e-24)
(0.0517638 -0.00615465 2.94325e-24)
(0.0519861 -0.00586005 -1.44738e-23)
(0.0522059 -0.00555905 -4.97544e-24)
(0.0524234 -0.00525162 -4.6419e-24)
(0.0526388 -0.0049377 1.21953e-23)
(0.0528524 -0.00461719 -1.27943e-24)
(0.0530645 -0.00428994 0)
(0.0532755 -0.0039558 -5.39025e-23)
(0.0534857 -0.00361457 2.06313e-22)
(0.0536955 -0.003266 -1.63285e-22)
(0.0539053 -0.00290979 -1.10508e-22)
(0.0541157 -0.0025457 -1.4339e-23)
(0.0543273 -0.00217343 -1.50141e-22)
(0.0545406 -0.00179283 -3.78762e-23)
(0.0547561 -0.00140364 3.20893e-22)
(0.0549745 -0.00100569 -3.79798e-22)
(0.0551964 -0.000598648 -4.27585e-22)
(0.0554228 -0.000182349 8.84712e-22)
(0.0556547 0.000243491 1.7962e-23)
(0.0558936 0.000678917 5.33145e-22)
(0.0561415 0.00112404 -5.26672e-22)
(0.0564008 0.00157851 5.89888e-22)
(0.0566747 0.00204224 -1.26551e-21)
(0.056967 0.00251497 -6.97946e-22)
(0.0572829 0.00299716 1.40254e-21)
(0.0576286 0.00348942 -7.58184e-22)
(0.0580145 0.00399152 -2.49956e-21)
(0.0584371 0.00452015 -1.01689e-21)
(0.0589771 0.00498926 0)
(0.0406247 -0.0125343 0)
(0.0409283 -0.0125448 -1.08778e-21)
(0.0412352 -0.012545 -3.88769e-24)
(0.0415436 -0.0125359 0)
(0.0418539 -0.0125184 0)
(0.0421657 -0.0124926 -9.52434e-22)
(0.042479 -0.0124585 2.74349e-21)
(0.0427933 -0.0124159 -3.57556e-21)
(0.0431086 -0.0123648 1.76403e-21)
(0.0434244 -0.0123051 -8.37909e-22)
(0.0437405 -0.0122366 0)
(0.0440565 -0.0121593 -7.79452e-22)
(0.0443722 -0.0120733 7.36e-22)
(0.0446872 -0.0119785 0)
(0.0450013 -0.0118748 0)
(0.0453142 -0.0117623 -6.44169e-22)
(0.0456256 -0.0116411 5.13038e-23)
(0.0459352 -0.0115111 1.24002e-21)
(0.0462426 -0.0113725 1.15701e-21)
(0.0465477 -0.0112253 -1.1371e-21)
(0.0468502 -0.0110697 -5.40485e-22)
(0.0471498 -0.0109057 -2.00012e-21)
(0.0474463 -0.0107334 2.59683e-23)
(0.0477395 -0.0105531 4.24689e-22)
(0.0480292 -0.0103649 -8.95068e-22)
(0.0483153 -0.010169 4.00745e-22)
(0.0485975 -0.00996556 -8.03735e-22)
(0.0488758 -0.00975478 0)
(0.0491502 -0.00953692 0)
(0.0494204 -0.00931218 0)
(0.0496866 -0.00908084 1.56529e-22)
(0.0499488 -0.00884309 2.80403e-22)
(0.0502069 -0.00859914 -2.70716e-22)
(0.0504609 -0.00834932 -2.25445e-22)
(0.0507112 -0.00809213 2.23999e-22)
(0.0509576 -0.00782772 0)
(0.0512001 -0.00755671 -7.5557e-23)
(0.051439 -0.00727948 3.74878e-23)
(0.0516744 -0.0069962 0)
(0.0519065 -0.00670693 -2.33436e-23)
(0.0521355 -0.0064117 3.22735e-24)
(0.0523617 -0.00611052 -1.93108e-24)
(0.0525853 -0.00580334 5.02465e-24)
(0.0528067 -0.00549013 0)
(0.0530262 -0.0051708 -7.80368e-24)
(0.053244 -0.00484524 7.70326e-24)
(0.0534605 -0.00451329 0)
(0.0536761 -0.00417479 -1.56658e-23)
(0.0538911 -0.00382952 -3.18719e-24)
(0.054106 -0.00347727 9.01164e-23)
(0.0543212 -0.00311776 0)
(0.0545372 -0.00275078 -9.94695e-24)
(0.0547543 -0.00237608 -1.41702e-22)
(0.0549731 -0.00199349 -5.09902e-22)
(0.0551941 -0.00160281 -2.52317e-23)
(0.0554178 -0.00120392 3.83442e-22)
(0.0556447 -0.000796644 0)
(0.0558759 -0.000381007 0)
(0.0561122 4.30096e-05 4.84276e-22)
(0.0563551 0.000475101 0)
(0.0566066 0.000914989 0)
(0.056869 0.00136192 2.80795e-23)
(0.0571456 0.00181526 -5.91539e-22)
(0.0574406 0.002274 -1.30296e-21)
(0.0577595 0.00273755 1.32791e-21)
(0.0581093 0.00320564 1.04218e-22)
(0.0585002 0.00367568 8.05744e-22)
(0.0589338 0.0041664 8.11881e-22)
(0.0594804 0.00457837 0)
(0.0406203 -0.01311 0)
(0.0409395 -0.0131194 1.11146e-21)
(0.0412617 -0.0131179 -3.19244e-21)
(0.0415852 -0.0131064 1.07111e-21)
(0.0419104 -0.013086 0)
(0.0422371 -0.0130567 2.87924e-21)
(0.042565 -0.0130185 -4.67544e-21)
(0.0428939 -0.0129714 5.75359e-23)
(0.0432234 -0.0129152 4.34578e-21)
(0.0435533 -0.0128498 -8.7242e-22)
(0.0438832 -0.0127753 7.95122e-22)
(0.0442127 -0.0126915 7.635e-22)
(0.0445415 -0.0125985 -2.20717e-21)
(0.0448694 -0.0124962 2.84973e-21)
(0.0451961 -0.0123847 -1.39351e-21)
(0.0455213 -0.012264 6.17896e-22)
(0.0458445 -0.0121342 -2.50399e-21)
(0.0461656 -0.0119953 6.36651e-22)
(0.0464843 -0.0118476 -5.34716e-22)
(0.0468002 -0.011691 5.84249e-22)
(0.0471131 -0.0115256 5.13686e-23)
(0.0474227 -0.0113517 2.95638e-21)
(0.0477288 -0.0111695 4.28976e-22)
(0.0480312 -0.010979 -4.96577e-23)
(0.0483296 -0.0107806 -1.27037e-21)
(0.048624 -0.0105743 4.07596e-22)
(0.0489142 -0.0103606 -7.21597e-22)
(0.0492 -0.0101395 1.06057e-21)
(0.0494814 -0.00991138 0)
(0.0497584 -0.00967651 2.93193e-22)
(0.0500308 -0.00943516 -2.94668e-22)
(0.0502989 -0.00918757 1.25004e-23)
(0.0505624 -0.008934 1.12816e-22)
(0.0508214 -0.00867488 1.01801e-22)
(0.0510766 -0.00840783 -2.68544e-22)
(0.0513275 -0.00813434 1.76957e-22)
(0.0515743 -0.0078547 -9.79498e-23)
(0.0518172 -0.00756918 1.1867e-22)
(0.0520565 -0.00727796 -5.33656e-23)
(0.0522924 -0.00698113 1.05891e-23)
(0.0525251 -0.00667871 0)
(0.0527551 -0.00637072 -3.13697e-24)
(0.0529825 -0.00605711 3.09565e-24)
(0.0532078 -0.00573785 -3.20249e-24)
(0.0534311 -0.00541285 1.87025e-23)
(0.053653 -0.005082 -1.46246e-23)
(0.0538737 -0.00474514 -2.41792e-23)
(0.0540937 -0.00440212 0)
(0.0543132 -0.00405271 -1.9898e-22)
(0.0545328 -0.00369671 2.16902e-22)
(0.0547526 -0.00333387 -1.19225e-22)
(0.0549733 -0.00296397 1.18282e-22)
(0.0551951 -0.00258677 1.43808e-22)
(0.0554184 -0.00220212 3.31594e-22)
(0.0556438 -0.00180983 3.67722e-22)
(0.0558716 -0.00140986 0)
(0.0561024 -0.00100216 -4.37769e-22)
(0.0563371 -0.000586912 0)
(0.0565765 -0.000164344 1.73351e-23)
(0.0568221 0.000264945 -5.18076e-22)
(0.0570755 0.000700286 5.26031e-22)
(0.0573393 0.00114045 5.75744e-22)
(0.0576165 0.00158419 -5.80783e-22)
(0.0579114 0.00202965 -2.00099e-24)
(0.0582295 0.00247503 -3.97922e-23)
(0.0585783 0.00291883 2.06157e-21)
(0.0589677 0.00335565 6.7399e-22)
(0.0594047 0.00380614 8.01933e-22)
(0.0599465 0.00415008 -7.8728e-22)
(0.0406162 -0.0137189 0)
(0.0409523 -0.0137271 0)
(0.0412914 -0.0137235 -2.14575e-21)
(0.0416314 -0.0137094 3.18673e-21)
(0.041973 -0.0136859 1.00628e-21)
(0.0423158 -0.0136529 0)
(0.0426597 -0.0136103 0)
(0.0430043 -0.0135583 -8.96142e-22)
(0.0433494 -0.0134966 1.70951e-21)
(0.0436946 -0.0134253 -7.84775e-23)
(0.0440395 -0.0133442 -4.01923e-21)
(0.0443838 -0.0132533 7.89846e-22)
(0.044727 -0.0131528 -7.19121e-22)
(0.045069 -0.0130425 1.43983e-21)
(0.0454092 -0.0129225 -6.61963e-22)
(0.0457475 -0.0127929 0)
(0.0460835 -0.0126538 0)
(0.0464168 -0.0125053 2.55044e-23)
(0.0467473 -0.0123475 1.68577e-21)
(0.0470745 -0.0121806 -5.41705e-22)
(0.0473982 -0.0120047 4.8845e-22)
(0.0477182 -0.0118201 -4.88666e-22)
(0.0480341 -0.0116269 -4.39293e-22)
(0.0483459 -0.0114254 4.65423e-22)
(0.0486532 -0.0112158 4.13262e-22)
(0.0489559 -0.0109984 0)
(0.049254 -0.0107735 0)
(0.0495472 -0.0105413 -4.99154e-22)
(0.0498356 -0.0103022 0)
(0.050119 -0.0100565 -2.71342e-22)
(0.0503976 -0.00980447 2.72617e-22)
(0.0506712 -0.00954636 1.25606e-22)
(0.05094 -0.00928249 -1.14428e-22)
(0.0512038 -0.0090131 -1.9246e-22)
(0.0514635 -0.00873592 8.98824e-23)
(0.0517187 -0.00845275 6.60846e-23)
(0.0519694 -0.00816392 -5.92314e-23)
(0.0522161 -0.00786962 0)
(0.052459 -0.00757001 0)
(0.0526984 -0.0072652 -5.57213e-24)
(0.0529346 -0.00695523 0)
(0.0531679 -0.00664011 0)
(0.0533988 -0.00631983 -4.36684e-24)
(0.0536274 -0.00599435 1.02204e-23)
(0.0538543 -0.00566355 -1.16711e-23)
(0.0540796 -0.00532735 2.39887e-23)
(0.0543039 -0.00498556 0)
(0.0545276 -0.00463801 1.46069e-22)
(0.0547508 -0.00428447 2.39372e-24)
(0.0549742 -0.00392474 0)
(0.0551979 -0.00355854 -2.74518e-22)
(0.0554224 -0.00318566 3.17914e-24)
(0.055648 -0.00280587 -3.2177e-22)
(0.0558751 -0.002419 -1.86292e-22)
(0.056104 -0.00202491 -4.08498e-22)
(0.0563352 -0.00162359 4.03514e-22)
(0.0565693 -0.0012151 4.41675e-22)
(0.0568069 -0.000799726 0)
(0.0570488 -0.00037791 -5.09043e-22)
(0.0572963 4.95068e-05 -1.6079e-23)
(0.0575508 0.000481473 0)
(0.0578144 0.000916278 0)
(0.0580901 0.00135197 5.85475e-22)
(0.0583817 0.00178575 0)
(0.0586944 0.00221446 0)
(0.0590358 0.00263508 -5.9978e-22)
(0.0594151 0.00303897 -7.13159e-22)
(0.0598419 0.00344605 -5.96076e-22)
(0.0603676 0.0037303 0)
(0.0406132 -0.0143643 0)
(0.0409673 -0.0143707 0)
(0.0413242 -0.0143649 0)
(0.0416821 -0.0143478 1.05253e-21)
(0.0420413 -0.0143206 9.80678e-22)
(0.0424016 -0.0142834 -6.58764e-23)
(0.0427626 -0.0142361 -1.9184e-21)
(0.0431242 -0.0141787 9.13563e-22)
(0.0434861 -0.0141111 -8.56668e-22)
(0.0438477 -0.0140332 -1.66107e-21)
(0.0442088 -0.013945 0)
(0.0445689 -0.0138465 0)
(0.0449276 -0.0137377 -2.85208e-23)
(0.0452846 -0.0136187 -2.09881e-21)
(0.0456396 -0.0134895 2.61388e-21)
(0.0459921 -0.0133503 -5.94711e-23)
(0.0463418 -0.0132011 -1.22726e-21)
(0.0466883 -0.0130421 -5.81904e-22)
(0.0470313 -0.0128735 -2.93133e-23)
(0.0473706 -0.0126955 0)
(0.0477058 -0.0125082 -9.6308e-22)
(0.0480367 -0.0123118 0)
(0.048363 -0.0121068 -8.55385e-22)
(0.0486845 -0.0118933 1.19702e-21)
(0.049001 -0.0116716 -1.14169e-21)
(0.0493123 -0.0114421 -3.36184e-22)
(0.0496184 -0.0112051 4.72098e-22)
(0.049919 -0.0109609 -4.49921e-22)
(0.0502143 -0.0107099 2.93429e-22)
(0.0505041 -0.0104524 0)
(0.0507885 -0.0101887 2.23727e-22)
(0.0510675 -0.0099193 7.50616e-23)
(0.0513412 -0.00964441 -2.02421e-22)
(0.0516097 -0.00936357 1.66102e-22)
(0.0518734 -0.00907585 -6.55167e-23)
(0.0521323 -0.00878243 6.46245e-23)
(0.0523866 -0.00848385 2.70255e-23)
(0.0526365 -0.00818029 -1.55049e-23)
(0.0528825 -0.00787188 -5.85155e-24)
(0.0531248 -0.00755875 1.65861e-23)
(0.0533638 -0.00724094 1.4046e-25)
(0.0535999 -0.00691848 0)
(0.0538334 -0.00659136 1.48125e-24)
(0.0540647 -0.00625951 -7.4216e-24)
(0.0542942 -0.00592283 1.17687e-23)
(0.0545223 -0.0055812 0)
(0.0547494 -0.00523442 0)
(0.0549759 -0.00488231 6.4029e-23)
(0.0552021 -0.00452464 -1.11148e-22)
(0.0554285 -0.00416114 -2.84572e-22)
(0.0556554 -0.00379157 5.99458e-22)
(0.0558831 -0.00341567 -1.69482e-22)
(0.056112 -0.00303321 1.7037e-22)
(0.0563425 -0.00264399 1.87912e-22)
(0.0565749 -0.00224789 -4.2579e-22)
(0.0568096 -0.00184488 4.20603e-22)
(0.0570469 -0.00143508 0)
(0.0572875 -0.00101885 -4.85004e-22)
(0.0575318 -0.000596761 -1.00293e-23)
(0.0577808 -0.000169859 5.06338e-22)
(0.0580354 0.000260444 0)
(0.0582975 0.000691964 0)
(0.0585691 0.00112202 0)
(0.0588537 0.00154679 1.08862e-21)
(0.0591554 0.00196159 5.28216e-22)
(0.0594825 0.00236178 5.87203e-22)
(0.0598416 0.00273444 -1.13076e-21)
(0.0602506 0.00310519 1.31099e-22)
(0.0607421 0.00329996 4.54063e-22)
(0.0406133 -0.0150493 0)
(0.0409862 -0.0150537 2.27215e-21)
(0.0413619 -0.0150451 -2.80717e-21)
(0.0417385 -0.0150244 1.55085e-21)
(0.0421164 -0.0149931 -3.09541e-21)
(0.0424952 -0.0149512 -9.70486e-22)
(0.0428746 -0.0148984 -9.28947e-22)
(0.0432543 -0.014835 0)
(0.043634 -0.0147607 1.72096e-21)
(0.0440132 -0.0146756 1.63872e-21)
(0.0443914 -0.0145796 -1.60514e-21)
(0.0447683 -0.0144727 7.33488e-22)
(0.0451435 -0.0143549 -6.67396e-22)
(0.0455166 -0.0142263 7.56231e-22)
(0.0458871 -0.0140871 2.54566e-21)
(0.0462547 -0.0139372 -6.21254e-23)
(0.0466189 -0.013777 -6.09927e-23)
(0.0469795 -0.0136066 -1.12435e-21)
(0.047336 -0.0134262 -5.31985e-22)
(0.047688 -0.013236 -9.45128e-22)
(0.0480354 -0.0130363 9.78766e-22)
(0.0483778 -0.0128273 0)
(0.0487149 -0.0126093 3.47505e-23)
(0.0490466 -0.0123828 0)
(0.0493726 -0.012148 3.66392e-22)
(0.0496928 -0.0119054 3.41168e-22)
(0.050007 -0.0116552 -1.58263e-22)
(0.0503151 -0.011398 0)
(0.0506172 -0.011134 -1.17456e-22)
(0.0509132 -0.0108638 -2.17962e-22)
(0.0512032 -0.0105877 2.18867e-22)
(0.0514873 -0.010306 -9.99568e-23)
(0.0517654 -0.0100194 1.5074e-22)
(0.0520383 -0.00972618 -2.89338e-22)
(0.0523055 -0.00942717 6.2633e-23)
(0.0525676 -0.00912299 0)
(0.0528248 -0.00881412 1.41228e-23)
(0.0530773 -0.0085008 6.39591e-24)
(0.0533256 -0.00818318 -1.06747e-23)
(0.05357 -0.00786137 5.48437e-24)
(0.053811 -0.00753543 -8.68103e-25)
(0.054049 -0.0072054 -6.18234e-24)
(0.0542844 -0.00687124 3.98533e-24)
(0.0545176 -0.00653289 0)
(0.054749 -0.00619023 0)
(0.0549791 -0.00584313 0)
(0.0552083 -0.00549138 5.62233e-23)
(0.0554371 -0.00513475 6.3544e-23)
(0.0556658 -0.00477299 0)
(0.0558949 -0.00440583 1.41105e-22)
(0.0561247 -0.00403296 1.67069e-22)
(0.0563556 -0.00365409 1.82542e-22)
(0.056588 -0.00326895 0)
(0.0568222 -0.00287728 0)
(0.0570584 -0.00247893 -4.44413e-22)
(0.0572969 -0.00207381 4.39023e-22)
(0.057538 -0.00166205 0)
(0.0577818 -0.00124398 4.89268e-22)
(0.0580287 -0.000820283 -5.07115e-22)
(0.0582789 -0.000392116 -5.2221e-22)
(0.0585331 3.87987e-05 5.33672e-22)
(0.058792 0.000469876 -5.2671e-22)
(0.0590569 0.00089769 0)
(0.0593302 0.00131742 -5.36629e-22)
(0.0596149 0.00172267 -3.75475e-23)
(0.0599195 0.00210712 -9.13811e-22)
(0.0602484 0.00245268 -8.08245e-22)
(0.0606312 0.00279106 8.84306e-22)
(0.061072 0.00290322 -4.5388e-22)
(0.0406177 -0.0157776 5.96269e-22)
(0.0410105 -0.0157797 0)
(0.0414063 -0.0157677 5.61389e-22)
(0.0418027 -0.015743 -2.63495e-21)
(0.0422004 -0.015707 4.61673e-21)
(0.0425988 -0.0156596 -1.00443e-21)
(0.0429976 -0.0156008 9.46473e-22)
(0.0433966 -0.0155306 -1.7472e-21)
(0.0437952 -0.0154489 8.73762e-22)
(0.044193 -0.0153557 8.23686e-22)
(0.0445895 -0.015251 7.5227e-22)
(0.0449842 -0.0151347 -2.17435e-21)
(0.0453768 -0.0150069 7.46999e-22)
(0.0457667 -0.0148678 -1.91789e-21)
(0.0461536 -0.0147175 -5.71643e-22)
(0.0465371 -0.014556 6.47948e-23)
(0.0469167 -0.0143836 1.13761e-21)
(0.0472919 -0.0142006 0)
(0.0476624 -0.0140071 0)
(0.0480278 -0.0138035 4.36748e-22)
(0.0483878 -0.0135901 4.46237e-22)
(0.0487421 -0.0133672 7.7093e-22)
(0.0490904 -0.0131352 -3.81011e-22)
(0.0494325 -0.0128944 -6.6247e-22)
(0.0497682 -0.0126453 6.62894e-22)
(0.0500972 -0.0123883 -1.36029e-22)
(0.0504196 -0.0121238 -1.23778e-22)
(0.0507351 -0.0118524 0)
(0.0510439 -0.0115745 1.19034e-22)
(0.0513459 -0.0112905 1.85845e-22)
(0.0516412 -0.0110008 -2.31415e-23)
(0.05193 -0.0107061 -1.64162e-22)
(0.052212 -0.0104066 5.60165e-23)
(0.0524885 -0.0101004 0)
(0.0527588 -0.0097893 -1.69298e-23)
(0.0530234 -0.00947371 1.18597e-23)
(0.0532827 -0.00915399 -1.42163e-23)
(0.0535371 -0.00883041 1.17934e-23)
(0.053787 -0.00850315 0)
(0.0540328 -0.00817232 -1.51598e-24)
(0.0542751 -0.00783798 1.81435e-24)
(0.0545143 -0.00750017 -6.28167e-24)
(0.0547508 -0.00715885 2.39248e-23)
(0.0549853 -0.00681395 -5.94996e-23)
(0.0552181 -0.00646533 4.18524e-23)
(0.0554497 -0.00611283 5.73487e-23)
(0.0556806 -0.00575622 -4.8472e-23)
(0.0559114 -0.00539523 1.51134e-22)
(0.0561425 -0.00502958 -1.41686e-22)
(0.0563743 -0.00465892 -4.12928e-22)
(0.0566073 -0.00428292 -1.59168e-24)
(0.0568417 -0.00390119 -1.84032e-22)
(0.057078 -0.0035134 0)
(0.0573163 -0.0031192 0)
(0.057557 -0.00271835 -4.64998e-22)
(0.0578 -0.00231066 7.03525e-22)
(0.0580453 -0.00189617 -4.79277e-22)
(0.0582929 -0.00147514 0)
(0.0585426 -0.00104825 5.26006e-22)
(0.0587941 -0.000616666 1.05897e-21)
(0.0590472 -0.000182288 -5.2462e-22)
(0.0593016 0.000252014 2.85211e-24)
(0.0595572 0.000682154 5.13263e-22)
(0.0598151 0.00110237 -1.20896e-24)
(0.0600767 0.00150456 -8.87061e-22)
(0.0603518 0.00188062 8.52726e-22)
(0.0606423 0.002208 3.86017e-22)
(0.0609902 0.00252248 0)
(0.0613378 0.00255079 0)
(0.0406272 -0.0165531 -6.07935e-22)
(0.0410415 -0.0165524 -2.86066e-21)
(0.0414587 -0.0165367 2.26853e-21)
(0.0418764 -0.0165074 0)
(0.0422952 -0.0164661 5.13783e-22)
(0.0427146 -0.0164126 1.89532e-21)
(0.0431341 -0.0163469 -1.43135e-21)
(0.0435535 -0.0162691 2.14292e-21)
(0.0439722 -0.0161791 -1.70407e-21)
(0.0443898 -0.0160769 0)
(0.0448056 -0.0159623 -4.01639e-22)
(0.0452193 -0.0158356 0)
(0.0456303 -0.0156967 -6.1322e-22)
(0.0460381 -0.0155458 1.94159e-21)
(0.0464423 -0.0153831 0)
(0.0468424 -0.0152087 0)
(0.0472379 -0.0150229 0)
(0.0476283 -0.0148259 7.10652e-22)
(0.0480134 -0.014618 -9.40142e-22)
(0.0483926 -0.0143997 -4.43367e-22)
(0.0487656 -0.0141712 0)
(0.0491321 -0.013933 0)
(0.0494917 -0.0136854 0)
(0.0498443 -0.013429 7.3002e-22)
(0.0501897 -0.0131642 -8.56569e-22)
(0.0505276 -0.0128915 4.06232e-22)
(0.0508579 -0.0126114 2.29379e-22)
(0.0511807 -0.0123245 -1.95032e-22)
(0.0514958 -0.0120313 1.95511e-22)
(0.0518034 -0.0117324 -6.9685e-23)
(0.0521035 -0.0114282 1.27687e-22)
(0.0523964 -0.0111192 -7.99974e-23)