/*--------------------------------*- C++ -*----------------------------------*\
| =========                 |                                                 |
| \\      /  F ield         | OpenFOAM: The Open Source CFD Toolbox           |
|  \\    /   O peration     | Version:  2312                                  |
|   \\  /    A nd           | Website:  www.openfoam.com                      |
|    \\/     M anipulation  |                                                 |
\*---------------------------------------------------------------------------*/
FoamFile
{
    version     2.0;
    format      ascii;
    arch        "LSB;label=32;scalar=64";
    class       volScalarField;
    location    "600";
    object      epsilon;
}
// * * * * * * * * * * * * * * * * * * * * * * * * * * * * * * * * * * * * * //

dimensions      [0 2 -3 0 0 0 0];

internalField   nonuniform List<scalar> 
76025
(
0.000247077
0.000246255
0.000245409
0.000244759
0.000244162
0.000243769
0.000243214
0.000242608
0.00024175
0.000240904
0.000240122
0.000239313
0.000238488
0.000237589
0.000236864
0.000236049
0.000235278
0.000234679
0.000233892
0.000233342
0.000232748
0.000232242
0.000231756
0.000231347
0.000231065
0.000230602
0.000230473
0.000230193
0.000229933
0.000229937
0.000229721
0.000229614
0.000229794
0.000229866
0.000230125
0.000230062
0.000230182
0.000231048
0.000231578
0.000232296
0.000233135
0.000234203
0.000236145
0.000238114
0.000239629
0.000243078
0.000246036
0.000248932
0.000251158
0.000252826
0.000254328
0.000255722
0.000258138
0.000260654
0.000266001
0.000268919
0.00027494
0.00027659
0.000276451
0.000278998
0.000288213
0.000296312
0.000315268
0.000327875
0.000357616
0.000378325
0.0004275
0.00046715
0.000526464
0.00024959
0.000248834
0.000247951
0.000247152
0.000246321
0.000245728
0.000245147
0.000244672
0.000244171
0.000243556
0.000242966
0.000242292
0.000241657
0.000240898
0.000240261
0.000239517
0.000238838
0.000238122
0.000237548
0.000236879
0.000236342
0.000235753
0.000235256
0.000234879
0.000234461
0.000234517
0.000234559
0.000234425
0.000234441
0.00023459
0.000234844
0.000235115
0.000235503
0.000235895
0.000236403
0.000236976
0.000237481
0.000238358
0.000239522
0.000241014
0.000241842
0.000242529
0.000243299
0.000244286
0.000245568
0.000247678
0.000250193
0.000252625
0.000257936
0.000257973
0.000261943
0.000261125
0.00026592
0.00026569
0.000271082
0.000273426
0.000272489
0.000273851
0.000281165
0.000287625
0.000302794
0.000313173
0.000336347
0.000352459
0.0003889
0.00041568
0.000477424
0.000522056
0.000663132
0.000251801
0.000251384
0.000250793
0.000250149
0.000249402
0.000248674
0.00024798
0.000247342
0.000246801
0.000246259
0.000245749
0.000245213
0.000244711
0.000244141
0.000243629
0.000243057
0.000242507
0.000241866
0.000241328
0.000240744
0.000240219
0.000239712
0.000239288
0.000238876
0.00023886
0.000238624
0.00023898
0.000238911
0.000238951
0.000239153
0.000239384
0.000239744
0.000240579
0.000240922
0.000242669
0.000243451
0.000243157
0.000245429
0.000246483
0.000246669
0.000247818
0.000248933
0.000249058
0.000253357
0.000255329
0.000255204
0.000259344
0.000260574
0.000261294
0.000266941
0.000269319
0.000271911
0.000267789
0.000273444
0.000271924
0.000272871
0.000280244
0.000285636
0.000298109
0.000306196
0.000324007
0.000335994
0.00036286
0.000381551
0.000423548
0.0004544
0.000525637
0.000579814
0.000744053
0.000254098
0.000253951
0.000253675
0.000253321
0.000252866
0.000252314
0.000251708
0.000251078
0.00025048
0.000249926
0.000249418
0.000248937
0.000248491
0.000248037
0.000247607
0.000247144
0.000246696
0.000246172
0.00024569
0.000245193
0.000244748
0.000244366
0.000243882
0.000243942
0.00024366
0.000243958
0.000243591
0.000244131
0.000243905
0.000243856
0.000244131
0.00024445
0.000245075
0.000245711
0.000246332
0.000247353
0.000248692
0.000250009
0.000251518
0.000253005
0.000254809
0.000255721
0.000259641
0.000261484
0.000263192
0.000261867
0.000262079
0.000264251
0.000267413
0.000269964
0.000277228
0.000279638
0.000279062
0.000278224
0.000282565
0.000286839
0.00029602
0.000302523
0.000316593
0.000326032
0.000346921
0.000361046
0.000392917
0.000415114
0.000465044
0.000502701
0.000590479
0.000657855
0.000863772
0.000257121
0.000256962
0.00025684
0.000256722
0.00025658
0.000256352
0.000256056
0.000255658
0.000255214
0.000254729
0.000254243
0.000253763
0.000253305
0.000252884
0.000252482
0.000252105
0.000251729
0.000251322
0.000250894
0.000250539
0.000249904
0.000250138
0.000249675
0.000249972
0.000249642
0.000250308
0.000250484
0.000250214
0.000251187
0.000251471
0.000251229
0.000251303
0.000251685
0.000252131
0.000253292
0.00025428
0.000255655
0.000257006
0.000259534
0.000261163
0.000263052
0.000264684
0.000263709
0.000264322
0.000265788
0.000268453
0.000271967
0.000274616
0.000281808
0.000279668
0.000285873
0.000283764
0.000285903
0.000289729
0.000296633
0.000303355
0.000313718
0.000323319
0.000338367
0.000351859
0.000374874
0.000393016
0.000430875
0.000457283
0.000518273
0.000565115
0.000672928
0.000758874
0.00100155
0.000261616
0.000261274
0.000261021
0.000260858
0.00026073
0.000260675
0.000260507
0.000260397
0.000260135
0.000259911
0.000259603
0.00025934
0.000259027
0.000258707
0.000258438
0.000258102
0.000257826
0.000257511
0.000257254
0.000256797
0.000256957
0.000256757
0.000256669
0.000256617
0.000257396
0.000256965
0.00025757
0.000257279
0.000257923
0.000258988
0.000259491
0.000260332
0.000261245
0.00026204
0.000261446
0.000260966
0.000261517
0.00026199
0.000263503
0.000264512
0.000266076
0.000268178
0.000270193
0.000273135
0.00027588
0.000279164
0.00028577
0.00028904
0.000291917
0.000290132
0.00029164
0.000294997
0.000300896
0.000306882
0.000315751
0.000324072
0.000336515
0.000348315
0.000365714
0.000383062
0.00040863
0.000433295
0.000476256
0.000509025
0.000587039
0.00064514
0.000780781
0.000895461
0.00114734
0.000267771
0.000267334
0.000266956
0.000266669
0.000266494
0.000266282
0.000266462
0.000266572
0.000266712
0.000266278
0.000266558
0.0002661
0.000266002
0.000265748
0.000265151
0.000265601
0.000265624
0.000265266
0.000264992
0.00026559
0.000265795
0.000265462
0.000266326
0.00026658
0.000266176
0.000267288
0.000267667
0.000268258
0.000268728
0.000269431
0.000268248
0.000268783
0.000268258
0.000268784
0.000269652
0.000270864
0.000272842
0.000274196
0.00027773
0.000279985
0.000282448
0.000281123
0.000284905
0.000283842
0.000284603
0.000286532
0.000289382
0.000292681
0.000296841
0.000301375
0.000307211
0.000313105
0.000321036
0.000328582
0.000339507
0.00034946
0.000364706
0.000378644
0.000399929
0.000420901
0.000451353
0.000483597
0.000532938
0.000580074
0.000674405
0.000749889
0.000931372
0.00106824
0.00146014
0.000275546
0.00027514
0.000274751
0.000274408
0.000274098
0.000274234
0.000274367
0.000274359
0.000274141
0.000274068
0.000274169
0.000274064
0.000274818
0.000274925
0.000274717
0.000274729
0.000274916
0.000275085
0.000275104
0.000276116
0.000275446
0.000276416
0.000276394
0.000276198
0.000277956
0.000278707
0.000279502
0.000280135
0.000279899
0.000280766
0.000280758
0.000283456
0.000284344
0.000284734
0.000284981
0.00028901
0.000290792
0.000292885
0.000290194
0.000295321
0.000293144
0.000292684
0.000294
0.000296181
0.000299124
0.000302572
0.000306739
0.000311289
0.000316758
0.000322477
0.000329657
0.000336824
0.000346484
0.000355569
0.000368964
0.000380798
0.000399774
0.000416079
0.000443082
0.000467804
0.000506375
0.000547575
0.000606771
0.000676839
0.000786051
0.000898788
0.00112355
0.001309
0.00169898
0.000285895
0.000285516
0.000284828
0.00028479
0.000284362
0.000284651
0.000284337
0.00028485
0.000284923
0.000284719
0.00028469
0.000284878
0.000284934
0.000286038
0.000285404
0.000286322
0.000286155
0.000286456
0.000286256
0.000288018
0.000288453
0.000288389
0.00028881
0.000289447
0.000290372
0.000290579
0.000293333
0.000294206
0.000293278
0.000293179
0.000294726
0.000296524
0.000297434
0.000302169
0.000303972
0.000306314
0.000303111
0.000308692
0.00030598
0.000305401
0.000306536
0.000308733
0.000311697
0.000315186
0.000319292
0.000323825
0.000329116
0.000334801
0.000341575
0.000348603
0.000357414
0.000366185
0.000378027
0.000389135
0.000405636
0.000420021
0.000443785
0.000463258
0.00049831
0.000527237
0.000579883
0.000629005
0.000711373
0.000802129
0.000944468
0.00110296
0.00137828
0.0016073
0.00215015
0.000298949
0.000298945
0.000298505
0.000298306
0.000298292
0.00029829
0.000298253
0.000298327
0.000298385
0.000298085
0.000298991
0.00029829
0.000299196
0.000298798
0.000298516
0.000299093
0.000299974
0.000300997
0.000303306
0.000302595
0.000304478
0.000303843
0.000303921
0.000304481
0.000306136
0.000307011
0.000308032
0.000310467
0.000312087
0.000312909
0.000317568
0.000319268
0.000321277
0.000317579
0.000322827
0.000319855
0.000318615
0.000319615
0.000321477
0.000324016
0.00032715
0.000330804
0.000334992
0.00033961
0.000344858
0.000350558
0.000357146
0.000364182
0.000372573
0.00038125
0.000392151
0.000402997
0.000417654
0.000431473
0.000451946
0.000470024
0.000499825
0.000524538
0.000569839
0.000606573
0.00067826
0.000740364
0.000856825
0.000973918
0.00116323
0.00138531
0.00168327
0.00207156
0.00249203
0.000314211
0.000315034
0.000315283
0.00031531
0.000314644
0.000315493
0.000315574
0.000315766
0.000315862
0.000314571
0.000315693
0.000315941
0.000315841
0.000315524
0.000317091
0.000316226
0.000315699
0.00031577
0.000316343
0.000316793
0.000318776
0.000320852
0.00032157
0.000325615
0.000327151
0.000329008
0.000326467
0.000330534
0.000328498
0.000327698
0.000328706
0.000329615
0.000331357
0.000332824
0.000334961
0.000337205
0.000339811
0.000342847
0.000346322
0.000350223
0.000354574
0.0003594
0.000364771
0.000370624
0.000377204
0.000384334
0.000392542
0.000401305
0.000411762
0.000422605
0.000436225
0.000449845
0.000468227
0.000485779
0.000511613
0.000535111
0.000573158
0.00060643
0.000665665
0.000716394
0.000813864
0.000897272
0.00106273
0.00120503
0.0014835
0.00171495
0.00217237
0.00248706
0.00324884
0.000334625
0.000334861
0.000334773
0.000334889
0.000335231
0.000335335
0.000335678
0.000336161
0.000336099
0.000337736
0.000338327
0.000339098
0.00033968
0.000340482
0.000341089
0.000340875
0.00034178
0.000341648
0.000344743
0.000345673
0.000347008
0.00034435
0.000347502
0.000345454
0.000344483
0.00034501
0.000345687
0.000347045
0.000348447
0.000350029
0.000351924
0.000354286
0.000356828
0.000359721
0.000362908
0.000366425
0.000370303
0.000374547
0.000379205
0.000384302
0.000389889
0.000396032
0.000402813
0.000410203
0.000418469
0.00042746
0.000437762
0.000448837
0.000461995
0.000475806
0.000493047
0.000510582
0.000534086
0.000557109
0.000590643
0.00062246
0.000672763
0.000719813
0.00079928
0.000873544
0.00100442
0.00112567
0.00134346
0.00153926
0.00188968
0.00219109
0.00271673
0.0031556
0.00386772
0.000359236
0.000358735
0.000360404
0.000360913
0.00036102
0.000362926
0.000363582
0.000363505
0.000365704
0.000364984
0.000366669
0.000367753
0.000366311
0.00036783
0.000368629
0.000366553
0.00036528
0.000365067
0.000365726
0.000366358
0.000367435
0.000368148
0.00036927
0.000370355
0.000371618
0.000373212
0.000375083
0.000377247
0.000379679
0.00038238
0.00038536
0.000388646
0.000392237
0.000396169
0.000400445
0.000405126
0.000410204
0.000415714
0.000421712
0.000428246
0.000435377
0.000443209
0.000451829
0.000461258
0.000471766
0.000483289
0.000496415
0.00051073
0.00052758
0.000545692
0.000568032
0.000591512
0.000622485
0.000654198
0.000699405
0.000744675
0.000813956
0.000882609
0.000992731
0.00110123
0.00127904
0.00145032
0.00173435
0.00199294
0.00242956
0.00279286
0.00342868
0.00389482
0.00477948
0.00039196
0.000394462
0.000395274
0.000396329
0.000396905
0.00039771
0.000398211
0.000396888
0.000397395
0.000398192
0.000399368
0.000402218
0.000403852
0.000404168
0.000408923
0.00040981
0.000410717
0.000405788
0.000408803
0.000405435
0.000403962
0.000404326
0.000405622
0.000407446
0.000409646
0.000412174
0.000415009
0.000418147
0.000421592
0.000425351
0.00042944
0.000433874
0.000438683
0.000443887
0.000449527
0.000455637
0.000462235
0.000469376
0.000477133
0.000485579
0.000494793
0.000504928
0.00051608
0.000528349
0.000542015
0.00055716
0.000574365
0.00059348
0.000615827
0.000640588
0.000670728
0.000703829
0.000746473
0.000792652
0.000856077
0.000923464
0.00102143
0.00112339
0.00127704
0.00143315
0.00167218
0.00190554
0.00226812
0.00259658
0.00312678
0.00355357
0.00429466
0.00480839
0.00578949
0.000431039
0.000432282
0.000434653
0.000437017
0.000437567
0.000442237
0.000443656
0.000444806
0.000441255
0.000444593
0.00044219
0.000441045
0.000441558
0.000442015
0.00044332
0.000444125
0.000445375
0.000446125
0.000447538
0.000448953
0.000450685
0.000452842
0.000455398
0.000458314
0.00046157
0.000465161
0.000469092
0.000473374
0.00047802
0.000483053
0.000488493
0.000494371
0.000500717
0.000507574
0.000514988
0.000522984
0.000531626
0.000540993
0.000551186
0.000562314
0.000574496
0.000587951
0.000602819
0.000619308
0.000637761
0.000658472
0.00068208
0.000708839
0.000740085
0.000775765
0.000818757
0.000867854
0.000929511
0.000999414
0.00109119
0.00119314
0.00133247
0.00148249
0.00169336
0.00191177
0.00222365
0.00253078
0.00297748
0.00338277
0.00400472
0.00449382
0.00534388
0.00586965
0.00704585
0.00048881
0.000493217
0.000492658
0.000492129
0.000495759
0.000494108
0.000493372
0.00049379
0.000494143
0.000495196
0.000496217
0.00049732
0.000498743
0.000500302
0.000502115
0.000504049
0.000506212
0.000508551
0.000511158
0.000514031
0.000517201
0.00052069
0.000524516
0.000528691
0.00053323
0.000538153
0.000543483
0.000549244
0.000555469
0.000562186
0.000569441
0.000577269
0.000585731
0.000594878
0.000604753
0.000615441
0.000627045
0.000639685
0.000653522
0.000668718
0.000685486
0.000704143
0.000724939
0.000748248
0.000774587
0.000804537
0.000838956
0.000878589
0.000925022
0.000978987
0.00104357
0.00111883
0.00121086
0.00131734
0.00145119
0.00160257
0.00179792
0.00201078
0.00229202
0.00258439
0.00297765
0.00336476
0.0038962
0.00438075
0.0050836
0.00564179
0.00657275
0.00713934
0.0084845
0.000569227
0.000567268
0.000566289
0.000566123
0.000566936
0.000567882
0.000569059
0.000570569
0.000572323
0.000574331
0.000576547
0.00057894
0.000581534
0.000584318
0.000587316
0.000590533
0.000593996
0.000597725
0.000601748
0.000606091
0.000610778
0.000615836
0.000621291
0.00062717
0.000633504
0.000640328
0.000647682
0.000655609
0.000664159
0.000673391
0.000683355
0.000694153
0.000705825
0.000718465
0.000732194
0.000747158
0.000763528
0.000781509
0.000801367
0.000823376
0.000847913
0.000875463
0.000906486
0.000941608
0.000981661
0.00102759
0.00108065
0.0011421
0.00121395
0.00129766
0.0013966
0.00151178
0.00164932
0.0018077
0.00199895
0.00221434
0.00247955
0.00276657
0.00312813
0.0034993
0.00397849
0.00444237
0.00505704
0.00561279
0.00638753
0.00701284
0.0080008
0.00865223
0.00995418
0.000669335
0.00067041
0.000671575
0.000673141
0.000675084
0.000677307
0.000679785
0.000682521
0.000685512
0.000688759
0.00069226
0.000696016
0.000700037
0.000704333
0.000708922
0.000713826
0.000719069
0.000724679
0.000730688
0.000737129
0.000744038
0.000751455
0.000759421
0.000767983
0.000777189
0.0007871
0.000797777
0.0008093
0.000821736
0.00083521
0.000849788
0.000865588
0.000882767
0.000901502
0.000922009
0.000944539
0.000969391
0.000996914
0.00102755
0.00106176
0.00110017
0.00114351
0.00119254
0.00124821
0.00131174
0.00138447
0.00146809
0.00156431
0.00167553
0.00180367
0.00195234
0.00212291
0.00232135
0.00254626
0.00280919
0.00310001
0.00344407
0.00381023
0.00425531
0.00470202
0.00526536
0.00579401
0.00648781
0.007098
0.0079418
0.00861772
0.00968614
0.0103637
0.0120359
0.000826645
0.000829394
0.000832189
0.000835341
0.000838784
0.000842489
0.00084647
0.000850745
0.000855334
0.000860254
0.000865524
0.000871165
0.000877201
0.000883661
0.000890576
0.000897982
0.000905919
0.000914429
0.000923563
0.000933373
0.000943918
0.000955263
0.00096748
0.000980645
0.000994849
0.00101018
0.00102677
0.00104472
0.00106415
0.00108523
0.00110816
0.00113317
0.00116053
0.00119053
0.00122353
0.00125994
0.00130024
0.00134497
0.0013948
0.00145042
0.00151275
0.00158279
0.00166156
0.00175037
0.00185077
0.00196438
0.00209323
0.00223921
0.002405
0.00259246
0.00280526
0.0030444
0.00331555
0.00361646
0.00395813
0.00432859
0.00475376
0.00519583
0.00571927
0.00623021
0.00687004
0.007444
0.00821353
0.00885905
0.00976788
0.0105217
0.0116011
0.012591
0.0139206
0.00107336
0.001078
0.00108274
0.00108797
0.00109359
0.00109956
0.00110594
0.00111277
0.00112009
0.00112795
0.00113638
0.00114543
0.00115516
0.00116562
0.00117687
0.00118899
0.00120203
0.00121607
0.00123119
0.00124748
0.00126505
0.00128397
0.00130439
0.00132638
0.00135008
0.00137567
0.00140334
0.0014333
0.00146578
0.00150107
0.00153946
0.0015813
0.00162699
0.00167698
0.00173178
0.00179197
0.00185821
0.00193126
0.00201198
0.0021013
0.00220039
0.00231043
0.00243267
0.00256863
0.00272003
0.00288861
0.00307643
0.00328527
0.00351767
0.00377503
0.00406072
0.00437469
0.0047223
0.00509958
0.0055175
0.00596148
0.00645851
0.00696625
0.00755512
0.00811287
0.00881961
0.00941337
0.0102762
0.0109077
0.0119797
0.0126881
0.0141329
0.015023
0.0173932
0.00151519
0.00152479
0.0015345
0.00154482
0.00155563
0.00156692
0.00157876
0.00159123
0.00160441
0.00161836
0.00163316
0.00164889
0.00166565
0.00168352
0.00170257
0.00172291
0.00174467
0.00176797
0.00179298
0.00181976
0.00184873
0.00188003
0.00191385
0.00195035
0.00198975
0.00203225
0.00207813
0.00212765
0.00218114
0.00223896
0.00230154
0.00236932
0.00244283
0.00252267
0.00260949
0.00270405
0.00280716
0.00291977
0.00304289
0.00317759
0.0033252
0.00348695
0.0036641
0.00385821
0.00407087
0.0043036
0.00455814
0.00483582
0.00513863
0.00546722
0.00582428
0.00620864
0.0066252
0.00706826
0.00754944
0.00805092
0.00860323
0.00915751
0.00979546
0.010386
0.0111458
0.0117599
0.0127224
0.0133716
0.0146341
0.0154972
0.0172084
0.0186977
0.0212497
0.00241851
0.00243697
0.00245549
0.00247474
0.00249454
0.0025149
0.00253592
0.00255773
0.00258043
0.00260414
0.00262895
0.002655
0.00268242
0.00271137
0.00274193
0.00277458
0.00280947
0.00284677
0.00288665
0.00292934
0.00297485
0.00302344
0.00307539
0.00313099
0.00319055
0.00325442
0.00332297
0.00339658
0.00347572
0.00356086
0.00365255
0.00375137
0.00385797
0.00397307
0.00409746
0.004232
0.00437764
0.0045354
0.00470632
0.00489152
0.00509225
0.00530956
0.00554451
0.0057984
0.0060724
0.00636761
0.00668508
0.00702559
0.00739019
0.00777899
0.00819349
0.00863234
0.00909922
0.00958867
0.010112
0.0106506
0.0112387
0.0118232
0.0124972
0.013119
0.0139365
0.014603
0.015722
0.0164542
0.0181458
0.0192002
0.0218334
0.023655
0.0291643
0.0042609
0.00429061
0.00432052
0.00435139
0.00438289
0.00441497
0.00444775
0.00448137
0.00451595
0.0045516
0.00458848
0.00462682
0.00466678
0.00470854
0.00475235
0.00479807
0.00484595
0.00489628
0.00494934
0.00500547
0.00506501
0.00512831
0.00519574
0.00526769
0.00534459
0.00542686
0.00551502
0.00560952
0.005711
0.00581995
0.00593707
0.00606298
0.00619852
0.0063444
0.00650159
0.0066709
0.00685343
0.00705013
0.00726197
0.00749004
0.00773539
0.00799877
0.00828087
0.00858248
0.00890401
0.00924597
0.0096085
0.00999201
0.0103964
0.0108222
0.0112692
0.0117383
0.0122303
0.012745
0.0132894
0.0138519
0.0144661
0.0150809
0.0158018
0.0164881
0.0174218
0.0182544
0.019654
0.0207356
0.0231706
0.0247245
0.0291553
0.0325671
0.0401054
0.00780041
0.00783586
0.00787054
0.00790555
0.00794065
0.00797568
0.00801124
0.00804721
0.00808368
0.00812055
0.0081584
0.00819811
0.00823941
0.0082824
0.00832726
0.00837416
0.00842334
0.00847512
0.0085298
0.00858776
0.0086494
0.0087151
0.00878535
0.00886052
0.00894113
0.00902776
0.00912089
0.00922101
0.00932898
0.00944474
0.00956929
0.00970319
0.0098479
0.0100037
0.0101723
0.0103535
0.0105495
0.0107602
0.0109867
0.011231
0.0114938
0.0117755
0.0120761
0.0123959
0.0127347
0.013093
0.0134703
0.0138675
0.0142838
0.0147214
0.015179
0.0156618
0.0161666
0.0167034
0.0172704
0.0178752
0.0185408
0.0192329
0.0200729
0.0209447
0.0221708
0.0234009
0.0254264
0.0272408
0.0310137
0.0336868
0.0419182
0.0455531
0.0628261
0.0137129
0.0137316
0.0137498
0.0137685
0.0137872
0.0138057
0.0138248
0.013844
0.0138637
0.0138833
0.0139033
0.0139248
0.0139472
0.0139706
0.0139955
0.0140221
0.0140508
0.014082
0.0141158
0.0141526
0.0141925
0.0142358
0.014284
0.0143344
0.0143909
0.0144554
0.0145256
0.014606
0.0146926
0.0147858
0.0148838
0.0149909
0.0151112
0.0152454
0.0153954
0.01556
0.015742
0.0159401
0.0161558
0.0163907
0.0166453
0.0169195
0.0172131
0.0175257
0.0178574
0.0182086
0.0185796
0.0189728
0.0193882
0.0198317
0.020302
0.0208112
0.0213536
0.0219521
0.0225977
0.0233208
0.0241263
0.0250275
0.0261676
0.0275228
0.0293299
0.0314829
0.0344475
0.0379911
0.0435373
0.0497405
0.0613189
0.0695428
0.0897036
0.0230057
0.0230019
0.0229983
0.0229959
0.0229941
0.0229926
0.022991
0.0229899
0.022989
0.022988
0.0229863
0.0229835
0.0229803
0.022977
0.022974
0.0229717
0.0229699
0.022968
0.0229659
0.0229621
0.0229505
0.0229377
0.022918
0.0228066
0.0227678
0.0227759
0.0227685
0.0228835
0.0229212
0.022936
0.0228218
0.0227554
0.0227493
0.0227878
0.0228515
0.0229399
0.023053
0.0231902
0.0233486
0.023526
0.0237215
0.0239346
0.0241689
0.0244284
0.0247182
0.0250444
0.0254105
0.0258254
0.0262892
0.0268154
0.0273953
0.0280568
0.0287784
0.0296039
0.0305011
0.031517
0.0326355
0.0339372
0.0357501
0.0380101
0.0409331
0.0445916
0.0495042
0.056712
0.0666409
0.0807973
0.0985079
0.118514
0.14576
0.0358369
0.0357985
0.0357588
0.0357233
0.0356896
0.0356562
0.0356218
0.0355842
0.0355447
0.0355045
0.0354635
0.0354173
0.0353709
0.0353259
0.0352863
0.0352497
0.0352142
0.0351762
0.0351319
0.0350869
0.0350464
0.0350097
0.0349766
0.0349429
0.0349146
0.0348919
0.0348732
0.0348621
0.034852
0.0348416
0.0348221
0.0347957
0.0346758
0.0346437
0.0343595
0.0341631
0.034117
0.0341571
0.0342589
0.03441
0.0346115
0.0348584
0.0351657
0.035545
0.0360038
0.0365499
0.0371745
0.0378932
0.038672
0.0395467
0.0404378
0.0414259
0.0423807
0.0434432
0.0444069
0.0455777
0.0465986
0.0482634
0.0523444
0.0574212
0.0637175
0.0722146
0.0852535
0.103381
0.128218
0.160599
0.195305
0.238834
0.269444
0.0638206
0.0636584
0.0635247
0.0636811
0.0637583
0.0638169
0.063851
0.0638363
0.0638047
0.0637423
0.063662
0.0632398
0.0629954
0.0628351
0.0629592
0.0630012
0.0630171
0.0629523
0.0624905
0.0621241
0.0622684
0.062296
0.0622938
0.0622468
0.0621585
0.0620401
0.0618978
0.061736
0.0615578
0.0613634
0.06115
0.0609191
0.0606636
0.060389
0.060094
0.0597838
0.0594632
0.0591397
0.0589041
0.0587761
0.0587171
0.0583739
0.0582538
0.0584675
0.0589351
0.0596104
0.0604371
0.0614388
0.0625321
0.0638231
0.0651779
0.0668196
0.0685896
0.0708071
0.0731974
0.0762787
0.0799582
0.0848533
0.0888453
0.0956566
0.106316
0.122755
0.145953
0.176614
0.215792
0.258589
0.302559
0.344132
0.359262
0.198081
0.198665
0.198232
0.197785
0.199968
0.200628
0.201157
0.200533
0.201357
0.200203
0.201396
0.200811
0.200925
0.201091
0.201958
0.203242
0.203931
0.203786
0.204242
0.204073
0.205945
0.206277
0.20667
0.205183
0.203484
0.202215
0.201174
0.200303
0.199508
0.19875
0.198009
0.19724
0.196454
0.195618
0.194745
0.193807
0.192809
0.191721
0.190554
0.189276
0.187866
0.186283
0.184498
0.182478
0.180202
0.177631
0.174718
0.171414
0.167646
0.163374
0.158524
0.153073
0.146954
0.140156
0.132557
0.124278
0.115172
0.105586
0.0955784
0.0858332
0.076367
0.068311
0.0616955
0.0577317
0.0578132
0.0607714
0.0681033
0.0793328
0.0923203
0.000260696
0.000261019
0.000261306
0.000261494
0.000261693
0.000261782
0.000261871
0.000262257
0.00026296
0.000263767
0.000264187
0.000265174
0.000265705
0.000265928
0.000265813
0.000265635
0.000266197
0.000266304
0.000266162
0.000265905
0.00026651
0.000267097
0.000267042
0.000267588
0.000267501
0.000267441
0.000268063
0.000268333
0.000268118
0.000268138
0.000269039
0.00026961
0.000269625
0.000268061
0.000267349
0.000266643
0.000266461
0.00026605
0.000264941
0.000264006
0.00026321
0.000262721
0.000261959
0.000260263
0.000259413
0.000258054
0.000256973
0.000255965
0.00025459
0.000253442
0.000252798
0.000252145
0.000251654
0.000251309
0.00025086
0.00025035
0.000249572
0.000248683
0.000247861
0.000262479
0.000262722
0.000262889
0.000263064
0.000263218
0.000263447
0.000263901
0.000264512
0.000265278
0.000265723
0.00026615
0.000266364
0.000266695
0.000266505
0.000266477
0.000266402
0.000266895
0.000266845
0.000266612
0.000266613
0.000267546
0.00026777
0.000267688
0.000268084
0.000267899
0.0002679
0.000268524
0.000268752
0.000268482
0.000268476
0.000269368
0.000269911
0.000269887
0.000268536
0.000267782
0.000267035
0.000266875
0.000266446
0.000265585
0.000264551
0.000263681
0.000263185
0.000262709
0.000261465
0.000260423
0.000259354
0.000258171
0.000257232
0.000256337
0.000254863
0.000253882
0.000253096
0.000252471
0.00025202
0.000251715
0.000251415
0.000251117
0.000250659
0.000250174
0.000264895
0.000265078
0.000265268
0.0002656
0.000265987
0.000266514
0.000267015
0.000267385
0.00026752
0.000267965
0.000267948
0.000267949
0.00026799
0.000267957
0.000267759
0.000267968
0.000268195
0.000268125
0.000267753
0.000268399
0.000268977
0.000269035
0.000268964
0.000269118
0.000268849
0.000268999
0.000269583
0.000269792
0.000269478
0.00026941
0.000270373
0.000270896
0.000270852
0.000269639
0.000268794
0.00026803
0.000267707
0.000267415
0.000266733
0.000265644
0.000264734
0.000264178
0.000263825
0.000263101
0.000261982
0.00026104
0.000259965
0.000258987
0.00025825
0.000257233
0.000256062
0.000255015
0.000254177
0.000253493
0.000253041
0.000252684
0.000252466
0.00025222
0.00025201
0.000268448
0.000268746
0.000269015
0.000269237
0.000269546
0.000269657
0.000270038
0.000269984
0.000270046
0.000270127
0.000270111
0.000270212
0.000270404
0.000270178
0.000269988
0.000270245
0.000270312
0.000270142
0.00026998
0.000270849
0.000271123
0.000271139
0.000270996
0.000270965
0.000270658
0.000270985
0.000271389
0.000271584
0.000271177
0.000271099
0.000272001
0.000272426
0.000272357
0.00027143
0.000270553
0.000269746
0.000269365
0.000269058
0.000268539
0.000267581
0.000266573
0.000265869
0.000265524
0.000265083
0.000264238
0.000263338
0.000262385
0.000261419
0.000260666
0.000259926
0.000259037
0.000258049
0.000257119
0.000256265
0.000255581
0.000255009
0.000254633
0.000254313
0.000254107
0.000272435
0.000272623
0.000273118
0.000273151
0.000273323
0.000273339
0.000273494
0.00027365
0.000273622
0.000273555
0.000273804
0.000273611
0.000273394
0.000273275
0.000273339
0.000273541
0.000273343
0.000273107
0.000273614
0.000273963
0.000274079
0.000274015
0.000273762
0.000273568
0.000273316
0.000273691
0.000273978
0.000274143
0.000273677
0.000273595
0.00027445
0.000274806
0.000274726
0.00027395
0.000273062
0.000272242
0.000271798
0.00027148
0.000271043
0.000270274
0.000269271
0.000268425
0.000267967
0.000267654
0.000267146
0.000266368
0.000265538
0.000264647
0.000263858
0.000263189
0.000262518
0.000261757
0.000260955
0.000260131
0.000259379
0.00025866
0.000258109
0.000257596
0.000257264
0.000278125
0.000277949
0.00027799
0.000278144
0.000278439
0.000278096
0.000277924
0.000277987
0.000278037
0.000278109
0.000278257
0.000277959
0.000277851
0.0002777
0.000277632
0.000277772
0.000277362
0.000277501
0.000277826
0.000277986
0.000277986
0.000277918
0.000277476
0.000277167
0.000276986
0.000277351
0.000277596
0.000277713
0.000277189
0.00027711
0.000277906
0.000278192
0.000278105
0.000277456
0.00027657
0.00027574
0.000275239
0.000274902
0.000274513
0.000273911
0.00027302
0.000272096
0.000271468
0.000271117
0.000270795
0.000270306
0.000269617
0.000268841
0.000268076
0.000267401
0.000266813
0.000266216
0.000265605
0.000264932
0.000264279
0.000263578
0.000262991
0.00026236
0.000261907
0.00028408
0.000284129
0.000284202
0.000284313
0.00028437
0.000284547
0.000284121
0.000284084
0.000283834
0.000283595
0.000283277
0.00028333
0.000283385
0.000283589
0.000283286
0.000283276
0.000282989
0.000283116
0.000283116
0.000283239
0.000283315
0.000282858
0.000282321
0.000281984
0.000281886
0.000282155
0.000282327
0.000282393
0.000281797
0.000281719
0.00028245
0.000282671
0.000282581
0.000282039
0.000281177
0.000280346
0.0002798
0.000279445
0.000279092
0.000278621
0.000277898
0.000277011
0.00027625
0.000275797
0.000275469
0.000275188
0.0002748
0.000274209
0.000273527
0.000272851
0.000272248
0.000271694
0.000271196
0.000270672
0.000270188
0.000269609
0.00026913
0.000268524
0.000268081
0.000293019
0.000293406
0.000292961
0.000292989
0.000292038
0.000291615
0.000291718
0.000291668
0.00029141
0.000291367
0.000291549
0.000292007
0.00029149
0.000291177
0.000290781
0.000290546
0.000290379
0.000290259
0.000290257
0.000290344
0.000289935
0.000289259
0.000288693
0.00028835
0.000288299
0.000288461
0.000288588
0.000288591
0.000287921
0.000287847
0.000288505
0.00028866
0.000288564
0.000288097
0.000287298
0.000286455
0.000285869
0.000285488
0.000285157
0.000284766
0.000284221
0.000283445
0.000282651
0.000282022
0.000281715
0.000281367
0.000281073
0.000280782
0.000280377
0.000279897
0.000279408
0.000278906
0.000278406
0.000277917
0.000277475
0.00027703
0.000276638
0.000276124
0.000275729
0.000303512
0.000304072
0.000302952
0.000302672
0.00030273
0.00030276
0.000303085
0.000303689
0.000303126
0.000302639
0.000302221
0.000301722
0.000301123
0.000300715
0.000300378
0.000300179
0.000299997
0.000299748
0.000299458
0.000298983
0.000298252
0.000297467
0.00029688
0.000296527
0.00029648
0.000296519
0.000296607
0.000296456
0.000295715
0.00029564
0.000296218
0.000296313
0.000296215
0.000295806
0.000295107
0.000294257
0.000293648
0.000293261
0.000292989
0.000292693
0.000292258
0.000291634
0.000290862
0.000290259
0.000289697
0.000289684
0.000289582
0.000289237
0.000288763
0.000288226
0.0002878
0.000287455
0.000287347
0.000286966
0.000286756
0.000286167
0.000286246
0.000285833
0.000285868
0.000320968
0.000320562
0.000319753
0.000319333
0.000318795
0.000318205
0.000317658
0.000316985
0.000316206
0.00031543
0.000314738
0.000314086
0.000313525
0.000313098
0.000312724
0.000312386
0.000311949
0.000311392
0.000310704
0.000309854
0.000308907
0.000308055
0.000307443
0.000307091
0.000307047
0.000307075
0.000306995
0.000306651
0.000305868
0.000305783
0.000306268
0.000306303