/*--------------------------------*- C++ -*----------------------------------*\
| =========                 |                                                 |
| \\      /  F ield         | OpenFOAM: The Open Source CFD Toolbox           |
|  \\    /   O peration     | Version:  2312                                  |
|   \\  /    A nd           | Website:  www.openfoam.com                      |
|    \\/     M anipulation  |                                                 |
\*---------------------------------------------------------------------------*/
FoamFile
{
    version     2.0;
    format      ascii;
    arch        "LSB;label=32;scalar=64";
    class       volScalarField;
    location    "600";
    object      k;
}
// * * * * * * * * * * * * * * * * * * * * * * * * * * * * * * * * * * * * * //

dimensions      [0 2 -2 0 0 0 0];

internalField   nonuniform List<scalar> 
76025
(
0.00190006
0.00189613
0.0018921
0.00188944
0.00188671
0.00188552
0.00188351
0.00188169
0.00187859
0.00187578
0.0018732
0.0018702
0.00186714
0.00186298
0.00186065
0.00185721
0.00185521
0.00185283
0.00185065
0.00184842
0.00184664
0.00184517
0.00184377
0.00184292
0.00184193
0.00184153
0.00184201
0.00184154
0.00184087
0.00184127
0.00184209
0.00184185
0.00184367
0.00184402
0.00184648
0.00184888
0.0018514
0.00185847
0.00186387
0.00186989
0.00187738
0.00188426
0.00189593
0.00190634
0.00191778
0.00192966
0.00194399
0.00195965
0.0019761
0.00199159
0.00201041
0.00202615
0.00204626
0.00206569
0.00208473
0.00212007
0.00213632
0.00213474
0.00215369
0.00218548
0.00224827
0.00229576
0.00240297
0.00247361
0.00263575
0.00274431
0.00299233
0.0031747
0.00346377
0.00191569
0.00191258
0.00190877
0.00190528
0.00190148
0.00189881
0.00189618
0.00189423
0.00189224
0.00189019
0.00188832
0.00188626
0.00188445
0.00188193
0.00188006
0.00187739
0.00187519
0.00187297
0.00187112
0.0018692
0.00186783
0.00186616
0.00186629
0.00186655
0.00186689
0.00186617
0.00186616
0.0018683
0.00186953
0.00187198
0.00187347
0.00187537
0.00187841
0.00188325
0.00188703
0.00189852
0.00190404
0.00190927
0.00190675
0.00190645
0.00190927
0.00191579
0.00192186
0.00193181
0.00193972
0.00195254
0.00196259
0.0019753
0.00199224
0.00200376
0.00201986
0.00203437
0.00204919
0.002084
0.00210037
0.00210101
0.00211674
0.0021498
0.00220096
0.00225003
0.00232856
0.00239082
0.00251692
0.00260106
0.00278532
0.0029182
0.00321049
0.00341903
0.00400852
0.00192942
0.00192832
0.0019261
0.00192363
0.00192064
0.00191761
0.00191458
0.0019118
0.00190931
0.00190701
0.00190507
0.00190317
0.0019016
0.00189992
0.00189855
0.00189714
0.00189556
0.00189389
0.00189252
0.00189129
0.00188965
0.00189062
0.0018909
0.00189191
0.00189269
0.00189389
0.00189495
0.00189409
0.00189952
0.00190206
0.00190595
0.00190927
0.00190872
0.00190808
0.00191049
0.0019145
0.00191976
0.00192424
0.00192921
0.00193537
0.00194181
0.00195165
0.00196091
0.00197524
0.00198723
0.00200625
0.00202508
0.00203266
0.00206044
0.00204996
0.00207474
0.0020631
0.00206653
0.00208415
0.00211011
0.00214586
0.00218736
0.00223372
0.0022923
0.00234951
0.00243797
0.00250866
0.00264662
0.00274106
0.00295093
0.00310131
0.00343243
0.00367868
0.00434396
0.0019443
0.00194498
0.00194435
0.0019431
0.00194154
0.00193966
0.00193751
0.00193517
0.00193288
0.00193051
0.0019284
0.00192643
0.00192464
0.00192277
0.00192137
0.00191889
0.0019199
0.00191997
0.00191854
0.00191985
0.00191903
0.00191815
0.00192048
0.00191861
0.0019212
0.0019212
0.00192117
0.00192659
0.00192912
0.00192878
0.00193758
0.00194152
0.0019428
0.00194767
0.00194928
0.0019569
0.00196101
0.00197795
0.00198529
0.00198184
0.00198399
0.00198862
0.00199985
0.00200892
0.00203059
0.00204402
0.00205919
0.00207215
0.00207723
0.00207129
0.00207928
0.00209802
0.00212333
0.00215354
0.00218825
0.0022277
0.00227412
0.00232544
0.00239107
0.00245726
0.00255556
0.00264011
0.00279419
0.00290609
0.00314971
0.00332416
0.00371622
0.00400816
0.00479022
0.00196555
0.00196479
0.00196366
0.00196294
0.00196226
0.00196142
0.00196057
0.00195935
0.0019578
0.00195624
0.00195437
0.00195259
0.00195118
0.00194979
0.00194933
0.00194925
0.00194782
0.00195005
0.00194829
0.00194822
0.00194699
0.00195094
0.00195252
0.00195182
0.00195747
0.00195946
0.00195855
0.00196617
0.00196894
0.00196771
0.00197787
0.00198172
0.00197966
0.00198048
0.00198447
0.00199195
0.00200534
0.00201469
0.00202447
0.00201573
0.00203422
0.00202548
0.00202413
0.0020285
0.00203727
0.00204816
0.00206152
0.00207724
0.00209538
0.0021175
0.00214205
0.00217031
0.00220102
0.00223652
0.00227595
0.00232166
0.00237469
0.00243424
0.00250895
0.0025869
0.00269703
0.00280053
0.00296936
0.00311209
0.00338405
0.00359552
0.0040614
0.00441443
0.00529005
0.00199259
0.00199243
0.00199226
0.00199178
0.00199039
0.00199013
0.00199014
0.00199033
0.00199205
0.00199222
0.00199255
0.00199113
0.00198893
0.00198586
0.00198681
0.00198514
0.00198456
0.00198357
0.00198652
0.00198779
0.00198833
0.00198652
0.00199097
0.00199239
0.00198997
0.00199185
0.00199253
0.00199565
0.00200283
0.00200463
0.00201301
0.00201618
0.00203171
0.00203744
0.00204441
0.00203378
0.00205179
0.00204333
0.00204162
0.00204381
0.00204976
0.00205752
0.00206761
0.00207935
0.00209334
0.00210915
0.00212725
0.0021482
0.00217153
0.00219771
0.00222615
0.00225843
0.00229368
0.00233464
0.00237991
0.00243311
0.0024936
0.00256351
0.00264821
0.00274075
0.00286513
0.00299053
0.00318041
0.0033623
0.00366576
0.00395382
0.00447365
0.00493808
0.00579545
0.00202616
0.0020263
0.00202643
0.00202626
0.00202677
0.00202685
0.00202719
0.00202431
0.00202664
0.00202761
0.00202821
0.00202685
0.00203083
0.00202944
0.00202886
0.00203166
0.00203221
0.00203756
0.00203946
0.00203956
0.00203864
0.00204449
0.00204644
0.00204543
0.0020432
0.00205156
0.00205392
0.00205746
0.00205086
0.00206064
0.00205607
0.00205425
0.0020578
0.00206034
0.00206579
0.00206968
0.00207552
0.00208249
0.00208991
0.00209988
0.00211094
0.00212394
0.00213838
0.00215443
0.00217207
0.00219172
0.00221325
0.00223741
0.00226384
0.00229366
0.00232612
0.00236346
0.00240406
0.00245182
0.00250393
0.00256633
0.00263559
0.00271838
0.00281481
0.00292603
0.00306796
0.00322142
0.00344242
0.00366834
0.00403254
0.00438422
0.00501945
0.00550552
0.00668621
0.00207282
0.00207041
0.00207009
0.00206997
0.00206778
0.00206715
0.0020697
0.00207057
0.00207033
0.00206993
0.00207441
0.00207279
0.00207121
0.00207223
0.00207187
0.00207249
0.00207376
0.00207578
0.0020783
0.00208121
0.00208475
0.00209114
0.00210358
0.00210827
0.00211362
0.00210843
0.00211868
0.00212281
0.00212555
0.00211558
0.002111
0.00211136
0.00211494
0.00212014
0.00212689
0.0021347
0.00214423
0.00215445
0.00216626
0.00217927
0.00219362
0.00220946
0.00222671
0.00224562
0.00226627
0.00228916
0.00231422
0.00234227
0.00237299
0.00240776
0.0024455
0.00248908
0.00253627
0.00259217
0.00265268
0.00272606
0.00280633
0.00290479
0.00301645
0.00315149
0.00331672
0.00350899
0.00376926
0.00406194
0.00448499
0.00495458
0.00562498
0.00634003
0.00736185
0.00213001
0.00213013
0.00212884
0.00212857
0.00212782
0.00212357
0.00212586
0.00212461
0.0021256
0.00212607
0.00213193
0.00212933
0.00213288
0.00213038
0.00213087
0.00213345
0.00213689
0.0021419
0.00214429
0.00215478
0.00215122
0.00216084
0.0021575
0.00215619
0.00215849
0.00216036
0.00216331
0.00216644
0.00217055
0.00217408
0.00217895
0.00218446
0.00219183
0.00219999
0.00221003
0.00222077
0.00223312
0.0022465
0.00226108
0.00227686
0.00229393
0.00231263
0.00233293
0.00235513
0.00237932
0.00240612
0.00243539
0.00246819
0.00250401
0.00254475
0.00258888
0.00264005
0.00269533
0.00276116
0.00283225
0.0029192
0.00301397
0.00313217
0.00326502
0.00343114
0.0036301
0.00387338
0.00419014
0.0045613
0.00507029
0.00564263
0.00640831
0.00724986
0.00831562
0.00219844
0.00219892
0.0021987
0.0021961
0.00219916
0.00219922
0.00219705
0.0022012
0.00220162
0.0022001
0.0022021
0.00220149
0.00220909
0.0022113
0.00221187
0.00221225
0.0022238
0.00222751
0.00223233
0.00222488
0.00223477
0.00222851
0.00222599
0.00222726
0.00223066
0.00223535
0.00224054
0.00224682
0.0022533
0.00226104
0.00226925
0.00227906
0.00228938
0.00230114
0.00231391
0.00232777
0.00234264
0.00235857
0.00237575
0.00239431
0.0024144
0.00243638
0.00246026
0.00248636
0.00251481
0.00254633
0.00258075
0.00261939
0.00266153
0.00270967
0.00276185
0.00282252
0.00288817
0.00296658
0.00305165
0.00315609
0.00327092
0.00341516
0.00357886
0.00378642
0.00403458
0.00434363
0.00473616
0.00519812
0.00581175
0.00648006
0.00736403
0.0083015
0.00938354
0.00227802
0.00228349
0.00228498
0.00228692
0.00228788
0.00228806
0.0022864
0.00228551
0.00229283
0.0022947
0.00229193
0.00229144
0.00229441
0.00229475
0.00230542
0.0023016
0.00229844
0.00229835
0.00229922
0.00230163
0.00230573
0.0023101
0.00231543
0.00232123
0.00232829
0.00233576
0.00234415
0.00235326
0.00236294
0.0023734
0.00238459
0.00239668
0.00240973
0.00242378
0.00243901
0.0024554
0.00247301
0.00249192
0.00251236
0.00253444
0.00255838
0.00258453
0.00261298
0.00264406
0.00267798
0.00271552
0.00275658
0.00280265
0.00285301
0.00291051
0.00297321
0.00304615
0.00312561
0.00322065
0.00332492
0.00345325
0.00359667
0.00377722
0.00398539
0.00424936
0.00456494
0.00495684
0.00544086
0.00600696
0.00672935
0.00749245
0.00850694
0.00945925
0.0107293
0.00238031
0.00238172
0.00238365
0.00238834
0.00239221
0.00240306
0.00240578
0.00240477
0.0024066
0.00240633
0.00241512
0.0024172
0.00242041
0.00242163
0.00241841
0.00241938
0.0024208
0.00242152
0.00243338
0.00242742
0.00243257
0.00243022
0.00243391
0.00244071
0.00244928
0.00245898
0.00246958
0.00248101
0.00249325
0.00250638
0.00252042
0.00253549
0.00255166
0.00256901
0.00258772
0.00260774
0.00262921
0.00265224
0.00267709
0.00270391
0.00273295
0.0027646
0.00279904
0.00283661
0.00287765
0.00292299
0.00297273
0.00302842
0.00308966
0.00315943
0.00323628
0.00332569
0.00342441
0.00354254
0.00367449
0.00383688
0.00402185
0.0042537
0.004524
0.00486225
0.00526399
0.00575304
0.00634083
0.00701545
0.00784458
0.00869716
0.009826
0.0107643
0.0122712
0.00251449
0.00251617
0.00250928
0.00251
0.0025073
0.00251028
0.00251543
0.00251917
0.00253106
0.00253823
0.00255212
0.0025577
0.00257613
0.00258288
0.00258394
0.00258312
0.00260253
0.00260652
0.00261217
0.00259128
0.00260525
0.00259105
0.00258608
0.00259008
0.00259869
0.00260992
0.00262285
0.00263711
0.00265252
0.00266909
0.00268682
0.00270581
0.00272608
0.00274784
0.00277106
0.00279582
0.00282231
0.00285067
0.00288121
0.0029141
0.00294967
0.00298839
0.00303052
0.00307646
0.00312676
0.0031823
0.00324354
0.00331209
0.00338817
0.00347487
0.00357176
0.00368458
0.00381159
0.00396331
0.00413635
0.00434785
0.00459222
0.00489389
0.00524559
0.00567536
0.00617741
0.0067729
0.00746626
0.00824927
0.0091641
0.0101152
0.0112776
0.012299
0.0137686
0.00266871
0.00267488
0.00268081
0.00269158
0.00268897
0.00269669
0.00270118
0.00270372
0.00269592
0.002693
0.00269621
0.00269971
0.00270554
0.00271018
0.0027159
0.00272028
0.00272713
0.00273185
0.00273855
0.00274282
0.00275009
0.00275744
0.00276644
0.0027776
0.00279072
0.00280555
0.00282187
0.00283959
0.00285868
0.00287915
0.00290107
0.00292448
0.00294955
0.00297628
0.00300476
0.00303514
0.00306764
0.00310246
0.00313998
0.00318044
0.00322427
0.00327205
0.00332419
0.00338122
0.00344397
0.00351352
0.00359084
0.00367776
0.00377542
0.00388712
0.00401398
0.004162
0.00433151
0.0045328
0.00476538
0.00504491
0.00536879
0.0057581
0.00620748
0.00673923
0.00734842
0.00804778
0.00884224
0.00971382
0.0107028
0.0117126
0.0129001
0.0139404
0.0153859
0.0028548
0.00286048
0.00286422
0.00286979
0.00287409
0.00287733
0.0028815
0.00288538
0.00288945
0.00289402
0.00289982
0.00290605
0.00291305
0.00292024
0.00292803
0.00293595
0.00294464
0.00295362
0.0029635
0.00297404
0.00298573
0.00299858
0.00301275
0.00302834
0.0030454
0.00306395
0.003084
0.0031056
0.0031288
0.00315368
0.00318031
0.00320888
0.00323939
0.00327194
0.00330672
0.00334397
0.00338398
0.00342705
0.00347364
0.00352415
0.00357916
0.00363946
0.00370569
0.00377866
0.00385963
0.00395008
0.00405166
0.0041667
0.00429743
0.00444758
0.00461988
0.00482031
0.00505142
0.00532243
0.00563419
0.006
0.00641938
0.00690796
0.00746176
0.00809581
0.00880643
0.00959631
0.0104737
0.0114061
0.0124433
0.0134714
0.0146507
0.0156862
0.0169685
0.00311006
0.00311348
0.00311796
0.00312382
0.00313031
0.00313685
0.00314375
0.00315095
0.00315866
0.00316694
0.00317591
0.00318544
0.00319559
0.00320628
0.00321757
0.00322944
0.00324201
0.00325532
0.0032695
0.00328465
0.0033009
0.00331834
0.00333708
0.00335722
0.00337884
0.00340204
0.00342691
0.00345359
0.00348219
0.00351285
0.00354577
0.00358096
0.00361863
0.00365903
0.00370245
0.00374925
0.00379987
0.00385476
0.00391461
0.00398001
0.00405187
0.00413129
0.00421929
0.00431716
0.00442672
0.00455006
0.00468954
0.00484811
0.00502885
0.00523587
0.00547272
0.00574504
0.00605624
0.00641377
0.00681953
0.00728311
0.00780324
0.00839085
0.00904179
0.00976623
0.010558
0.0114144
0.0123423
0.0133011
0.0143495
0.0153426
0.0165097
0.0173784
0.0187905
0.00345408
0.00346021
0.00346672
0.00347423
0.00348246
0.00349121
0.00350051
0.00351039
0.00352093
0.00353218
0.00354419
0.00355697
0.00357053
0.0035849
0.0036001
0.00361618
0.00363319
0.00365122
0.00367036
0.00369071
0.00371238
0.00373548
0.00376012
0.00378642
0.00381452
0.00384456
0.00387672
0.00391112
0.00394809
0.0039876
0.00402993
0.00407538
0.00412429
0.00417709
0.00423425
0.00429635
0.00436404
0.0044381
0.00451949
0.00460918
0.00470849
0.00481896
0.00494201
0.00507949
0.00523368
0.00540712
0.00560256
0.0058232
0.00607223
0.0063536
0.0066707
0.00702825
0.00742915
0.00787912
0.0083793
0.00893659
0.0095481
0.0102223
0.0109501
0.0117402
0.0125789
0.013467
0.0144009
0.0153498
0.0163476
0.0172929
0.0183208
0.0191641
0.0202082
0.00392565
0.00393453
0.00394367
0.00395385
0.0039648
0.00397638
0.00398866
0.00400168
0.00401553
0.00403025
0.00404592
0.00406258
0.00408031
0.00409914
0.00411916
0.00414043
0.00416303
0.00418707
0.00421265
0.00423991
0.00426897
0.00429999
0.00433313
0.00436857
0.00440648
0.00444713
0.00449068
0.00453728
0.00458728
0.00464104
0.004699
0.00476164
0.00482955
0.00490337
0.00498386
0.00507186
0.00516833
0.00527436
0.00539123
0.00552021
0.00566292
0.00582115
0.00599645
0.00619086
0.00640668
0.0066464
0.00691254
0.00720799
0.00753545
0.00789822
0.00829889
0.00874108
0.00922659
0.00975925
0.0103388
0.0109695
0.011647
0.0123761
0.0131463
0.0139627
0.0148083
0.0156846
0.0165766
0.0174646
0.0183658
0.0191992
0.0200766
0.0207463
0.021571
0.00459051
0.00460318
0.00461594
0.00462978
0.00464445
0.00465985
0.00467608
0.00469327
0.00471151
0.00473092
0.00475161
0.00477368
0.00479724
0.00482244
0.00484938
0.00487822
0.0049091
0.00494218
0.00497764
0.00501567
0.00505648
0.0051003
0.00514738
0.00519781
0.00525192
0.00531006
0.00537263
0.00544006
0.00551286
0.00559157
0.00567681
0.00576926
0.00586966
0.00597884
0.00609769
0.00622719
0.00636841
0.00652248
0.00669069
0.00687428
0.00707483
0.00729391
0.00753286
0.00779351
0.00807786
0.00838802
0.00872604
0.00909427
0.00949474
0.0099299
0.0104014
0.0109114
0.0114605
0.0120506
0.0126797
0.0133495
0.0140541
0.0147952
0.0155613
0.0163548
0.0171557
0.017969
0.018766
0.0195463
0.0202889
0.0209824
0.0216178
0.0220942
0.0224489
0.00557565
0.00559609
0.0056165
0.00563813
0.00566067
0.00568409
0.00570855
0.00573426
0.00576141
0.00579018
0.00582074
0.0058533
0.00588806
0.00592526
0.0059651
0.00600789
0.00605372
0.00610282
0.00615546
0.00621196
0.00627264
0.00633786
0.00640797
0.00648338
0.00656447
0.00665169
0.0067455
0.00684638
0.00695487
0.00707153
0.00719695
0.00733178
0.00747669
0.00763242
0.00779976
0.00797954
0.00817268
0.00838017
0.00860308
0.00884248
0.00909979
0.00937625
0.00967298
0.0099916
0.0103338
0.0107012
0.0110954
0.0115179
0.0119701
0.0124532
0.0129677
0.0135142
0.0140918
0.0147004
0.0153366
0.0159998
0.0166827
0.0173846
0.0180936
0.0188098
0.0195109
0.0202086
0.0208547
0.0214778
0.0220195
0.0225122
0.0228395
0.0229315
0.0229103
0.00718525
0.00722167
0.00725827
0.0072965
0.00733585
0.0073763
0.0074181
0.00746151
0.0075068
0.00755419
0.00760394
0.00765631
0.00771159
0.00777007
0.00783206
0.00789789
0.00796784
0.00804224
0.00812136
0.00820552
0.008295
0.00839008
0.00849106
0.00859827
0.00871203
0.00883271
0.00896068
0.00909636
0.00924019
0.00939266
0.00955428
0.0097256
0.00990723
0.0100998
0.0103041
0.0105208
0.0107509
0.0109952
0.0112546
0.0115304
0.0118236
0.0121352
0.0124663
0.012818
0.0131915
0.0135879
0.0140079
0.0144522
0.0149208
0.0154138
0.0159304
0.0164695
0.0170289
0.0176065
0.0181982
0.0188015
0.0194073
0.0200148
0.0206121
0.0211955
0.0217462
0.0222759
0.0227318
0.0231449
0.0234666
0.0235491
0.0235039
0.0233526
0.0232326
0.0101528
0.0102178
0.0102819
0.0103466
0.0104115
0.0104764
0.0105416
0.0106074
0.0106741
0.0107418
0.0108108
0.0108814
0.0109539
0.0110286
0.0111058
0.0111859
0.0112691
0.0113557
0.0114461
0.0115405
0.0116394
0.0117432
0.0118522
0.0119668
0.0120873
0.0122143
0.0123481
0.0124891
0.0126379
0.0127948
0.0129605
0.0131355
0.0133204
0.0135158
0.0137224
0.0139411
0.0141726
0.0144179
0.0146779
0.0149533
0.0152454
0.0155545
0.0158815
0.016227
0.0165914
0.016975
0.0173776
0.0177985
0.0182367
0.0186907
0.0191586
0.0196374
0.0201246
0.0206165
0.0211084
0.021596
0.0220695
0.0225308
0.0229671
0.0233717
0.0237323
0.0240641
0.0242678
0.0242877
0.0242165
0.0239829
0.0237267
0.0234259
0.0237673
0.0150325
0.0151081
0.0151811
0.015253
0.015323
0.015391
0.0154574
0.0155224
0.0155862
0.0156491
0.0157113
0.0157732
0.0158353
0.0158979
0.0159614
0.0160259
0.016092
0.0161598
0.01623
0.0163027
0.0163786
0.0164581
0.0165415
0.0166293
0.016722
0.0168199
0.0169237
0.0170336
0.0171503
0.0172739
0.0174052
0.0175443
0.0176921
0.0178488
0.0180155
0.0181925
0.0183808
0.0185812
0.018794
0.0190206
0.0192622
0.0195194
0.0197926
0.0200819
0.0203867
0.020706
0.0210386
0.0213825
0.0217357
0.0220949
0.0224578
0.0228209
0.0231819
0.0235361
0.0238774
0.0241986
0.0244981
0.0247786
0.0250292
0.0252208
0.0252449
0.025205
0.0250309
0.0247589
0.0243926
0.023946
0.0235548
0.0234727
0.0239305
0.0214142
0.0214761
0.0215335
0.021588
0.0216391
0.0216865
0.0217315
0.0217754
0.0218163
0.0218534
0.0218866
0.0219187
0.0219522
0.0219853
0.022018
0.0220503
0.0220821
0.0221139
0.022146
0.0221788
0.0222127
0.0222481
0.0222855
0.0223252
0.0223677
0.0224134
0.0224627
0.0225158
0.0225735
0.0226349
0.0227005
0.0227701
0.0228451
0.0229242
0.0230096
0.0230984
0.0231948
0.0232918
0.0233907
0.0234996
0.0236233
0.0237636
0.0239207
0.0240938
0.0242811
0.02448
0.0246884
0.0249024
0.0251201
0.0253351
0.025548
0.0257608
0.0259675
0.0261577
0.0263111
0.0264438
0.0265178
0.0265023
0.0264062
0.0261945
0.0258937
0.0255628
0.0251144
0.0245326
0.0239636
0.023585
0.0236359
0.0243926
0.0273732
0.028544
0.0285635
0.0285785
0.0285902
0.0285989
0.0286032
0.0286094
0.0286526
0.0286632
0.0286595
0.0286211
0.0285926
0.0286255
0.0286302
0.0286303
0.0286265
0.0286196
0.0286101
0.0285988
0.028586
0.0285726
0.0285585
0.0285437
0.0285287
0.0285133
0.0284984
0.0284846
0.0284722
0.0284618
0.0284528
0.0284448
0.0284375
0.0284304
0.028423
0.0284147
0.0284021
0.0283747
0.0282481
0.0280858
0.0279656
0.0278889
0.0278508
0.0278439
0.0278604
0.027894
0.0279379
0.0279891
0.0280411
0.0280946
0.028135
0.0281863
0.0282311
0.0282183
0.0281404
0.027973
0.0277456
0.0274761
0.0271632
0.0267572
0.0263323
0.025715
0.0249222
0.024181
0.0236454
0.0234642
0.02374
0.0255014
0.0281878
0.0322772
0.0354986
0.0354587
0.0354164
0.0353839
0.0353488
0.0353067
0.0352583
0.0352022
0.0351392
0.0350714
0.0349437
0.0348119
0.0346888
0.0345685
0.0344495
0.0343308
0.0342119
0.0340931
0.0339741
0.0338545
0.0337357
0.0336156
0.0334937
0.0333717
0.0332478
0.0331235
0.0330003
0.0328763
0.032754
0.03263
0.0325038
0.0323736
0.0322403
0.0321022
0.0319612
0.0318148
0.0316664
0.0315104
0.0313471
0.0311837
0.0310248
0.0308739
0.0307323
0.0305989
0.0304731
0.0303501
0.0302282
0.0300977
0.0299561
0.0297826
0.0295745
0.0293355
0.0290661
0.0287422
0.0283585
0.027922
0.0274379
0.0266875
0.0257439
0.0247541
0.0239026
0.0233413
0.0229986
0.0232207
0.0247256
0.0278699
0.0319961
0.037334
0.0432624
0.0395508
0.0394259
0.0392963
0.0391645
0.0390298
0.0388916
0.0387498
0.0386046
0.0384567
0.0383059
0.0381473
0.0379818
0.0378111
0.0376362
0.0374576
0.0372762
0.0370925
0.0369074
0.0367211
0.0365336
0.0363445
0.0361538
0.0359619
0.0357689
0.0355753
0.0353811
0.0351869
0.0349924
0.0347985
0.0346043
0.0344116
0.0342178
0.034025
0.0338297
0.0336327
0.0334323
0.0332298
0.0330257
0.0328231
0.0326251
0.0324348
0.0322454
0.0320577
0.031865
0.0316662
0.0314481
0.03121
0.0309292
0.030606
0.0302084
0.0297402
0.0291645
0.0284779
0.0276698
0.0267297
0.0257274
0.0247872
0.0239083
0.0230663
0.0226278
0.0226091
0.0233038
0.0256849
0.0295165
0.0350562
0.0414732
0.0491353
0.0573413
0.0631954
0.0391657
0.0390109
0.038851
0.0386957
0.0385409
0.0383823
0.0382233
0.0380619
0.0378982
0.0377298
0.0375583
0.0373843
0.0372038
0.0370194
0.0368276
0.0366347
0.036439
0.0362478
0.0360526
0.0358511
0.0356411
0.0354205
0.0351974
0.0349671
0.0347292
0.0344855
0.0342365
0.0339826
0.0337236
0.0334588
0.0331884
0.0329106
0.0326259
0.032331
0.0320275
0.0317117
0.0313864
0.0310471
0.0306985
0.0303278
0.0299436
0.0295361
0.0291104
0.0286458
0.0281579
0.0276281
0.0270834
0.0265064
0.0259319
0.0253453
0.0247872
0.0242512
0.0237935
0.0234094
0.0230405
0.022989
0.0229856
0.0230885
0.0236014
0.0252177
0.0273949
0.0308518
0.0351856
0.0408458
0.0478359
0.0549016
0.0631579
0.069631
0.0731804
0.0291425
0.0293646
0.0292742
0.0294803
0.0294826
0.0294744
0.0297131
0.0298074
0.0299019
0.0299745
0.0300549
0.0301202
0.0301107
0.0301514
0.0300285
0.0300769
0.0300965
0.0303312
0.030268
0.0304904
0.0305156
0.0305186
0.0307397
0.0306842
0.0305708
0.0304742
0.0303981
0.0303417
0.0302985
0.0302629
0.0302326
0.0302022
0.030172
0.0301387
0.0301024
0.0300605
0.0300132
0.0299574
0.0298937
0.0298191
0.0297319
0.0296278
0.0295035
0.0293546
0.0291783
0.0289702
0.0287253
0.0284382
0.0281005
0.0277059
0.0272443
0.02671
0.0260911
0.0253855
0.0245697
0.023653
0.0226069
0.0214512
0.0201708
0.0188444
0.0174658
0.0161586
0.0150181
0.0140304
0.01383
0.0141351
0.0152179
0.0171304
0.0194347
0.00196653
0.00196783
0.00196771
0.00196794
0.00196717
0.00196566
0.00196425
0.00196378
0.00196638
0.00196643
0.00196767
0.00196756
0.00197012
0.00197102
0.00197119
0.0019694
0.001972
0.00197308
0.00197272
0.00197128
0.0019748
0.00197836
0.00197767
0.00197981
0.00198114
0.00198218
0.00198614
0.00198781
0.00198771
0.00198699
0.00198892
0.00199095
0.00199175
0.00198656
0.00198455
0.00198161
0.00198089
0.00197861
0.00197339
0.00196932
0.00196484
0.00196375
0.00196152
0.00195473
0.00195135
0.00194509
0.00194049
0.00193682
0.00193113
0.00192544
0.00192162
0.00191875
0.00191785
0.00191716
0.00191599
0.00191423
0.00191117
0.00190727
0.00190359
0.00197613
0.00197593
0.00197528
0.00197512
0.00197494
0.00197497
0.0019757
0.00197657
0.00197661
0.001978
0.00197768
0.00197779
0.00197844
0.00197845
0.00197829
0.00197906
0.00198018
0.00198032
0.00197979
0.00198009
0.00198433
0.00198579
0.00198495
0.00198706
0.00198796
0.00198908
0.0019926
0.00199419
0.00199353
0.00199267
0.0019948
0.00199674
0.00199714
0.00199282
0.00199064
0.00198769
0.00198661
0.00198484
0.00198077
0.00197633
0.00197132
0.00196963
0.00196808
0.00196372
0.00195984
0.00195523
0.00195006
0.00194655
0.00194258
0.00193743
0.00193254
0.0019279
0.00192465
0.00192294
0.00192209
0.00192142
0.00192081
0.00191947
0.00191781
0.00198819
0.0019883
0.00198899
0.0019884
0.00198894
0.00198795
0.00198973
0.00198967
0.00199037
0.00199049
0.00198982
0.00198959
0.00198974
0.00199007
0.0019892
0.00199043
0.00199104
0.00199091
0.00198967
0.00199336
0.00199539
0.00199583
0.00199549
0.00199701
0.0019976
0.00199908
0.00200201
0.00200352
0.00200238
0.00200147
0.00200371
0.00200541
0.00200546
0.00200195
0.00199955
0.00199664
0.00199528
0.00199365
0.00199053
0.00198649
0.00198115
0.0019785
0.00197717
0.00197457
0.00197066
0.0019671
0.00196249
0.00195872
0.00195548
0.00195163
0.00194739
0.00194289
0.00193875
0.00193508
0.00193277
0.00193119
0.00193053
0.00192984
0.00192944
0.0020062
0.00200755
0.00200671
0.00200683
0.00200745
0.00200865
0.00200838
0.00200816
0.00200754
0.00200686
0.00200709
0.00200713
0.00200724
0.0020063
0.00200621
0.00200648
0.00200621
0.00200598
0.0020077
0.00200964
0.0020107
0.00201059
0.00200991
0.00201053
0.0020112
0.00201315
0.00201527
0.00201661
0.00201503
0.00201408
0.0020163
0.00201766
0.00201755
0.0020147
0.00201218
0.00200927
0.00200773
0.00200616
0.00200359
0.00200036
0.0019951
0.00199136
0.00198977
0.00198809
0.00198509
0.00198202
0.00197823
0.00197455
0.00197141
0.00196836
0.00196512
0.00196149
0.00195774
0.00195387
0.0019505
0.00194765
0.00194565
0.00194493
0.00194436
0.00203145
0.0020322
0.00203097
0.00203012
0.00203031
0.00203132
0.00202917
0.00202847
0.00202907
0.00202777
0.00202764
0.00202808
0.00202731
0.00202788
0.00202761
0.00202696
0.00202598
0.00202564
0.00202786
0.00202908
0.00202932
0.00202909
0.00202794
0.00202807
0.00202886
0.00203064
0.00203228
0.00203351
0.00203158
0.00203063
0.00203271
0.00203374
0.00203354
0.00203123
0.00202865
0.00202576
0.00202407
0.00202253
0.0020203
0.00201768
0.00201321
0.00200881
0.00200642
0.00200499
0.00200296
0.00200046
0.00199742
0.00199417
0.00199114
0.00198842
0.00198589
0.00198319
0.00198036
0.00197715
0.00197401
0.00197067
0.00196833
0.00196518
0.00196531
0.00205737
0.00205777
0.00205858
0.00205747
0.00205874
0.00205658
0.00205592
0.00205627
0.00205611
0.00205635
0.00205757
0.00205675
0.00205617
0.00205559
0.00205477
0.00205338
0.00205244
0.00205211
0.00205293
0.00205345
0.00205363
0.00205315
0.00205157
0.0020514
0.00205203
0.00205347
0.00205478
0.0020557
0.00205333
0.0020524
0.00205425
0.00205495
0.00205472
0.00205283
0.00205034
0.00204744
0.00204566
0.00204421
0.0020423
0.0020401
0.0020369
0.00203205
0.00202886
0.00202729
0.00202563
0.00202378
0.00202163
0.00201904
0.00201622
0.00201351
0.00201118
0.00200899
0.00200694
0.00200464
0.00200234
0.00199955
0.00199724
0.00199432
0.00199224
0.00210669
0.00210574
0.00210369
0.00210236
0.00210064
0.00209908
0.00209762
0.00209675
0.00209532
0.00209449
0.00209351
0.00209231
0.00209099
0.00208935
0.00208758
0.00208589
0.002085
0.00208428
0.00208492
0.00208569
0.00208419
0.00208218
0.00208049
0.00208002
0.00208025
0.00208162
0.00208276
0.00208336
0.00208072
0.00207981
0.00208141
0.00208178
0.00208151
0.00207993
0.00207764
0.00207479
0.00207288
0.00207149
0.00206982
0.00206792
0.00206562
0.00206191
0.00205772
0.00205532
0.00205431
0.00205275
0.00205084
0.00204907
0.00204724
0.00204516
0.0020431
0.00204103
0.00203914
0.00203726
0.0020357
0.00203366
0.0020319
0.00202937
0.00202766
0.00216019
0.00215828
0.00215545
0.00215347
0.00215092
0.00214881
0.00214648
0.0021445
0.00214225
0.00214036
0.00213821
0.00213596
0.00213357
0.00213118
0.00212923
0.00212797
0.00212748
0.002127
0.00212669
0.00212529
0.00212238
0.00211965
0.00211787
0.00211707
0.00211733
0.00211821
0.00211885
0.00211913
0.00211592
0.00211492
0.00211622
0.0021163
0.00211601
0.00211463
0.0021127
0.00211003
0.00210794
0.00210679
0.00210553
0.00210392
0.00210208
0.00209943
0.00209555
0.0020923
0.00209029
0.00209021
0.00208927
0.00208724
0.00208477
0.0020827
0.00208115
0.00207994
0.00207903
0.00207751
0.00207549
0.00207565
0.00207523
0.00207316
0.00207294
0.00222226
0.00221952
0.00221587
0.00221304
0.0022096
0.00220668
0.00220346
0.00220054
0.00219744
0.00219452
0.00219145
0.00218843
0.00218558
0.00218318
0.00218144
0.00218033
0.00217941
0.00217802
0.00217589
0.0021725
0.00216846
0.00216525
0.0021632
0.00216214
0.00216209
0.00216269
0.00216322
0.00216305
0.00215946
0.00215841
0.00215937
0.00215918
0.00215884
0.00215763
0.00215594
0.00215374
0.00215159
0.00215043
0.00214952
0.00214842
0.00214714
0.00214548
0.00214272
0.00213886
0.00213668
0.00213666
0.00213694
0.00213663
0.00213612
0.00213423
0.00213148
0.00212819
0.00212825
0.00212703
0.00212822
0.00212709
0.00212885
0.00212917
0.00212955
0.00229609
0.00229282
0.00228848
0.00228504
0.00228095
0.00227727
0.00227329
0.00226952
0.00226566
0.00226199
0.00225834
0.00225498
0.00225204
0.00224965
0.00224775
0.002246
0.00224379
0.00224058
0.0022364
0.00223161
0.00222715
0.00222379
0.00222162
0.00222048
0.00222055
0.00222072
0.00222042
0.00221913
0.00221494
0.0022137
0.00221424
0.00221384
0.00221348
0.00221244
0.00221104
0.00220928
0.00220756
0.00220651
0.00220581
0.00220505
0.00220453
0.00220398
0.00220227
0.0021997
0.00219584
0.00219557
0.00219431
0.00219632
0.00219661
0.00219742
0.00219693
0.00219458
0.00219585
0.00219602
0.00219589
0.00219461
0.00219483
0.00219392
0.00219736
0.00238917
0.00238515
0.00237978
0.00237539
0.00237022
0.00236546
0.00236042
0.00235567
0.00235097
0.00234659
0.00234243
0.00233869
0.00233533
0.00233229
0.00232921
0.00232568
0.00232119
0.00231574
0.0023099
0.00230423
0.00229934
0.00229547
0.00229286
0.00229144
0.00229128
0.00229087
0.0022898
0.00228769
0.00228326
0.0022819
0.002282
0.0022814
0.00228098
0.00228008
0.00227893
0.00227758
0.00227631
0.00227549
0.00227519
0.00227538
0.00227463
0.00227339
0.00227472
0.00227493
0.00227368
0.00227018
0.00226957
0.00226997
0.00226878
0.00226797
0.0022741
0.00227536
0.00227556
0.00227587
0.00227575
0.00227427
0.00227357
0.00227675
0.00227821
0.00250249
0.00249749
0.00249101
0.00248567
0.00247959
0.00247405
0.00246836
0.00246305
0.00245786
0.00245296
0.00244825
0.00244375
0.00243928
0.00243464
0.0024295
0.00242363
0.00241696
0.00240999
0.00240328
0.00239713
0.00239181
0.00238754
0.00238482
0.00238336
0.00238283
0.00238153
0.00237923
0.00237578
0.00237071
0.00236898
0.00236857
0.00236782
0.00236741
0.00236671
0.00236592
0.00236511
0.00236439
0.00236426
0.00236403
0.00236276
0.00236629
0.00236662
0.00236593
0.00236348
0.00236374
0.00236888
0.0023698
0.00236612
0.00236749
0.00236658
0.00236539
0.00236604
0.0023673
0.00237397
0.00237573
0.00237538
0.00237489
0.00238
0.0023815
0.00264375
0.00263836
0.00263137
0.00262569
0.0026192
0.00261323
0.002607
0.00260097
0.00259479
0.00258864
0.00258234
0.00257587
0.00256908
0.00256182
0.00255398
0.00254562
0.00253697
0.00252854
0.00252056
0.00251326
0.00250676
0.00250166
0.00249833