/*--------------------------------*- C++ -*----------------------------------*\
| =========                 |                                                 |
| \\      /  F ield         | OpenFOAM: The Open Source CFD Toolbox           |
|  \\    /   O peration     | Version:  2312                                  |
|   \\  /    A nd           | Website:  www.openfoam.com                      |
|    \\/     M anipulation  |                                                 |
\*---------------------------------------------------------------------------*/
FoamFile
{
    version     2.0;
    format      ascii;
    arch        "LSB;label=32;scalar=64";
    class       volScalarField;
    location    "600";
    object      nut;
}
// * * * * * * * * * * * * * * * * * * * * * * * * * * * * * * * * * * * * * //

dimensions      [0 2 -1 0 0 0 0];

internalField   nonuniform List<scalar> 
76025
(
0.00131506
0.001314
0.00131293
0.00131272
0.00131213
0.00131258
0.00131277
0.00131351
0.00131383
0.00131451
0.00131517
0.00131539
0.00131562
0.00131472
0.00131545
0.00131511
0.00131659
0.00131656
0.00131789
0.0013178
0.00131863
0.0013194
0.00132016
0.00132127
0.00132146
0.00132354
0.00132496
0.00132591
0.00132644
0.001327
0.00132942
0.0013297
0.00133128
0.00133137
0.00133343
0.00133726
0.0013402
0.0013454
0.00135013
0.00135467
0.00136062
0.00136436
0.00136996
0.0013736
0.00138134
0.00137866
0.0013824
0.00138842
0.0013993
0.00141195
0.00143028
0.00144484
0.00145986
0.00147336
0.00147048
0.00150426
0.00149396
0.00148285
0.00151005
0.00154076
0.00157844
0.00160083
0.00164839
0.00167957
0.00174837
0.00179161
0.00188506
0.00194174
0.00205103
0.00132333
0.00132304
0.00132247
0.00132189
0.00132107
0.00132053
0.00132001
0.00131984
0.00131978
0.00132025
0.00132083
0.00132162
0.00132256
0.00132317
0.00132405
0.00132439
0.00132505
0.00132588
0.00132645
0.00132747
0.00132855
0.00132949
0.00133247
0.00133499
0.00133785
0.00133651
0.00133625
0.00134008
0.00134176
0.00134441
0.00134511
0.00134629
0.00134843
0.00135313
0.00135565
0.00136888
0.00137393
0.00137641
0.00136611
0.00135722
0.00135658
0.00136199
0.0013663
0.00137491
0.00137895
0.00138533
0.00138556
0.00139005
0.00138489
0.00140075
0.00140178
0.00142644
0.0014212
0.00147117
0.00146465
0.00145297
0.00147988
0.00151888
0.00155062
0.00158414
0.00161165
0.00164268
0.00169509
0.00172756
0.00179538
0.00184379
0.00194304
0.00201526
0.00218077
0.00133057
0.00133126
0.00133133
0.00133134
0.00133117
0.00133087
0.00133037
0.00132993
0.00132938
0.0013291
0.00132915
0.00132939
0.00132993
0.00133067
0.00133156
0.0013327
0.0013335
0.00133468
0.00133573
0.00133723
0.00133782
0.00134204
0.0013448
0.00134856
0.00134977
0.00135281
0.00135231
0.00135147
0.001359
0.00136148
0.00136575
0.00136845
0.00136291
0.00136006
0.00135368
0.00135501
0.00136412
0.0013578
0.00135898
0.00136665
0.00136939
0.00137709
0.0013895
0.00138596
0.00139199
0.00141946
0.00142315
0.00142705
0.00146229
0.00141683
0.00143849
0.00140882
0.00143527
0.00142965
0.00147369
0.00151876
0.00153655
0.00157212
0.00158639
0.00162256
0.00165098
0.00168576
0.00173734
0.00177226
0.00185037
0.001905
0.00201725
0.00210058
0.0022825
0.00133896
0.00134067
0.00134127
0.00134141
0.00134166
0.00134201
0.00134225
0.00134237
0.00134239
0.00134207
0.00134186
0.00134171
0.00134162
0.00134147
0.00134184
0.00134089
0.00134473
0.0013477
0.00134833
0.00135291
0.00135421
0.00135508
0.00136108
0.0013581
0.00136335
0.00136167
0.00136369
0.00136835
0.00137323
0.00137302
0.00138401
0.00138783
0.00138612
0.00138946
0.00138825
0.00139336
0.00139168
0.00140836
0.00141033
0.00139718
0.00139029
0.00139181
0.00138632
0.00138906
0.00140998
0.00143592
0.00145614
0.0014624
0.0014522
0.00143027
0.00140357
0.00141667
0.00145404
0.00150021
0.00152517
0.0015571
0.00157235
0.00160876
0.00162527
0.0016668
0.00169428
0.0017375
0.00178835
0.00183102
0.00191994
0.00197832
0.00210495
0.00219787
0.00239086
0.0013523
0.00135209
0.00135117
0.0013508
0.00135062
0.00135067
0.00135105
0.00135147
0.00135168
0.0013521
0.0013521
0.00135218
0.00135268
0.001353
0.00135451
0.00135643
0.00135646
0.00136177
0.00136163
0.00136346
0.0013652
0.00136947
0.00137423
0.00137162
0.00138139
0.00138051
0.00137826
0.0013905
0.00138903
0.00138572
0.00140142
0.00140647
0.00140142
0.0014001
0.0013993
0.00140439
0.00141567
0.00142139
0.00142124
0.00140022
0.00141577
0.001395
0.00139828
0.00140106
0.00140541
0.00140637
0.00140637
0.00141413
0.00140222
0.00144294
0.00144454
0.00149392
0.00152501
0.0015538
0.00157163
0.00159916
0.00161778
0.00164945
0.00167431
0.00171172
0.00174634
0.00179602
0.00184169
0.00190617
0.00198865
0.00205887
0.0022061
0.00231112
0.00251473
0.00136589
0.00136746
0.00136854
0.00136874
0.0013675
0.00136743
0.00136833
0.00136917
0.00137292
0.00137434
0.00137642
0.00137585
0.00137447
0.00137193
0.00137467
0.00137415
0.00137481
0.00137513
0.0013806
0.00138482
0.00138471
0.00138327
0.00138995
0.00139222
0.00138463
0.00138958
0.00138725
0.00139318
0.00139972
0.00139647
0.00140543
0.00140531
0.00142206
0.00142575
0.00143878
0.00142648
0.0014488
0.00143429
0.00142366
0.00142128
0.00142116
0.00142072
0.00142399
0.00142469
0.00142956
0.00143416
0.00142516
0.00143693
0.00145384
0.00149826
0.00152935
0.0015561
0.00157358
0.00159849
0.00161442
0.00164408
0.001663
0.00169801
0.00172586
0.00176487
0.00180802
0.00185761
0.00191148
0.00199883
0.00206018
0.00218084
0.00230695
0.00245082
0.00263466
0.00137983
0.00138228
0.00138442
0.00138567
0.00138728
0.0013885
0.00138802
0.00138351
0.00138596
0.00138956
0.00138892
0.00138944
0.00139542
0.00139484
0.00139719
0.00139867
0.0013993
0.00140858
0.00141266
0.00140963
0.00140726
0.00141712
0.00141523
0.00141249
0.00141154
0.0014172
0.00141846
0.00142021
0.00140864
0.0014184
0.00141835
0.00141303
0.00142069
0.0014214
0.00142433
0.0014233
0.00142098
0.00142347
0.00141539
0.00141741
0.00141989
0.00144421
0.00144448
0.00147173
0.00149194
0.00150882
0.00152347
0.00153936
0.00155386
0.00157107
0.00158515
0.00160564
0.00162024
0.00164656
0.00166203
0.00169618
0.00171417
0.00175643
0.00178302
0.00183071
0.00187684
0.00193132
0.00200121
0.00208785
0.0021701
0.00230691
0.00243462
0.0025537
0.00275554
0.00140337
0.00140218
0.00140372
0.00140531
0.00140393
0.00140239
0.00140515
0.00140638
0.00140718
0.001407
0.00141259
0.00141092
0.0014049
0.00140574
0.00140632
0.00140709
0.00140786
0.00140973
0.00141307
0.00141183
0.00142008
0.00142379
0.00144089
0.00144836
0.00144651
0.00143553
0.00144541
0.00144776
0.00145272
0.00143469
0.00142852
0.0014154
0.00141578
0.0014208
0.00142862
0.00141908
0.001423
0.00142633
0.00145538
0.00144734
0.00147736
0.00150112
0.00151782
0.00153234
0.0015453
0.00155872
0.00157138
0.00158618
0.00159996
0.00161796
0.00163273
0.00165546
0.00167091
0.00170077
0.00171643
0.00175639
0.00177299
0.00182514
0.00184821
0.00191077
0.00195519
0.00202378
0.00210731
0.00219394
0.00230311
0.00245809
0.00253449
0.00276367
0.00287097
0.00142823
0.0014303
0.00143201
0.00143183
0.00143298
0.00142582
0.00143047
0.00142622
0.00142717
0.00142884
0.00143687
0.00143242
0.00143691
0.00142801
0.00143184
0.00143071
0.00143616
0.00144139
0.00144562
0.00145087
0.0014439
0.00145717
0.00145054
0.0014456
0.00144407
0.00144555
0.00143588
0.00143577
0.00144577
0.00145098
0.00144984
0.00144834
0.00145367
0.00144156
0.00144612
0.00144904
0.00148069
0.00147139
0.00150377
0.00152771
0.00154498
0.00155909
0.00157149
0.00158382
0.00159573
0.00160904
0.00162192
0.00163762
0.00165207
0.00167187
0.0016877
0.00171304
0.0017296
0.00176329
0.0017798
0.00182599
0.00184225
0.00190594
0.00192537
0.00200961
0.00204522
0.00214669
0.00222127
0.0023344
0.00244974
0.00259804
0.0026816
0.0029431
0.00289443
0.00145504
0.00145569
0.00145755
0.00145508
0.00145921
0.00145929
0.00145659
0.00146174
0.00146201
0.00146146
0.00145969
0.0014623
0.00146796
0.00147285
0.00147501
0.00147267
0.00148372
0.00148361
0.0014787
0.00147228
0.00147622
0.00147103
0.00146733
0.00146631
0.00146283
0.00146481
0.00146674
0.0014634
0.00146421
0.00147042
0.00145939
0.00146419
0.00146825
0.00150065
0.00149268
0.00152465
0.0015502
0.00156643
0.00158014
0.00159234
0.00160367
0.00161495
0.00162618
0.00163829
0.00165049
0.0016646
0.00167837
0.0016956
0.00171117
0.00173327
0.00175061
0.00177916
0.00179751
0.0018357
0.00185449
0.00190731
0.00192648
0.00200119
0.00202292
0.00212725
0.00215994
0.00229352
0.00235615
0.00249697
0.00261331
0.00272806
0.00289947
0.00299405
0.00317996
0.00148641
0.00148965
0.00149041
0.00149282
0.00149723
0.00149344
0.00149089
0.00148882
0.00149792
0.00150652
0.00149755
0.00149573
0.00150008
0.00150204
0.00150855
0.00150766
0.00150604
0.00150558
0.001504
0.00150501
0.00150097
0.00149692
0.00150048
0.00148927
0.00149132
0.00149242
0.00151486
0.00150788
0.00152973
0.00154708
0.00155691
0.0015684
0.00157719
0.0015886
0.00159836
0.00160914
0.00161978
0.00163009
0.00164031
0.00165068
0.00166136
0.00167273
0.00168459
0.00169767
0.00171112
0.00172679
0.0017422
0.00176159
0.00177911
0.00180404
0.00182382
0.00185645
0.00187783
0.00192173
0.00194475
0.00200565
0.00203127
0.00211742
0.00214748
0.00226849
0.00230441
0.0024645
0.002507
0.00269498
0.00274727
0.00294604
0.00299817
0.00323794
0.00318901
0.00152388
0.00152461
0.00152748
0.00153298
0.00153638
0.00154986
0.00155179
0.00154825
0.00155089
0.00154304
0.00155161
0.00155076
0.00155222
0.00155011
0.00154324
0.00154544
0.00154317
0.00154469
0.00154585
0.00153414
0.00153474
0.00154359
0.00153424
0.00155197
0.0015673
0.00157732
0.00158783
0.00159629
0.0016056
0.00161522
0.00162457
0.00163309
0.00164221
0.00165124
0.00166066
0.00167027
0.0016801
0.00169029
0.00170097
0.0017122
0.0017241
0.00173691
0.00175048
0.0017654
0.00178096
0.00179888
0.00181683
0.00183901
0.00185963
0.00188812
0.00191182
0.00194957
0.00197608
0.00202736
0.00205737
0.00212857
0.00216387
0.00226233
0.00230457
0.00243575
0.0024829
0.00264622
0.00269345
0.00287768
0.00293084
0.00310696
0.00319853
0.00330468
0.00350397
0.00158403
0.00158836
0.00157236
0.00157104
0.0015672
0.00156267
0.00156626
0.00157126
0.00157659
0.00158866
0.00159871
0.00160097
0.00163053
0.00163232
0.00163012
0.0016383
0.00166881
0.00167491
0.00167914
0.00164955
0.0016625
0.00164123
0.00162999
0.00163023
0.00163552
0.00164263
0.00165068
0.0016591
0.0016678
0.00167677
0.00168598
0.00169544
0.00170518
0.00171532
0.0017258
0.00173648
0.00174764
0.00175931
0.00177164
0.00178467
0.00179856
0.00181346
0.00182938
0.00184672
0.00186511
0.00188589
0.00190737
0.00193311
0.00195832
0.00199146
0.00202132
0.00206564
0.00210052
0.00216098
0.00220165
0.00228468
0.00233178
0.0024422
0.00249459
0.00263239
0.00268517
0.00284661
0.00289277
0.00307313
0.00311096
0.00329717
0.00333849
0.00349537
0.00356976
0.00163533
0.00163248
0.00163635
0.00164513
0.00163956
0.00164566
0.00164906
0.00165766
0.00164602
0.00163917
0.00163824
0.00163085
0.00163128
0.0016356
0.00162341
0.00162513
0.00162972
0.00165523
0.00165109
0.00167
0.00168499
0.00169248
0.0016981
0.00170416
0.00171107
0.00171869
0.00172687
0.0017355
0.00174455
0.00175398
0.00176383
0.00177409
0.00178485
0.00179605
0.00180761
0.00181962
0.00183227
0.00184559
0.00185976
0.00187481
0.00189096
0.00190833
0.00192707
0.00194745
0.00196948
0.0019941
0.00202045
0.00205118
0.00208312
0.00212285
0.00216196
0.00221503
0.00226208
0.00233288
0.0023874
0.00248044
0.00253972
0.00265626
0.00271562
0.00285214
0.00290635
0.00305897
0.00310242
0.00327054
0.00329715
0.00347446
0.00348737
0.00363744
0.00368002
0.00170168
0.00170354
0.00169868
0.00169607
0.00169903
0.00168488
0.00168435
0.00168452
0.00170287
0.00169544
0.00171149
0.00172332
0.00172962
0.00173637
0.0017405
0.00174676
0.00175219
0.00175993
0.00176613
0.00177311
0.0017802
0.00178701
0.00179381
0.00180089
0.00180839
0.00181636
0.00182479
0.00183371
0.00184311
0.00185304
0.00186347
0.00187455
0.00188615
0.00189825
0.00191091
0.00192433
0.00193862
0.00195385
0.00197022
0.0019878
0.00200686
0.00202757
0.00205019
0.00207497
0.00210221
0.00213264
0.00216608
0.00220434
0.00224583
0.00229488
0.00234611
0.00240961
0.00247067
0.00255104
0.00261823
0.00271552
0.00278337
0.00289701
0.0029592
0.00308551
0.00313888
0.00327489
0.00331584
0.00346133
0.00347971
0.00363458
0.00361495
0.00377281
0.00367786
0.0017809
0.00176887
0.00177597
0.00178458
0.00177888
0.00179229
0.00180287
0.0018096
0.00181717
0.00182283
0.00182939
0.00183631
0.00184276
0.00184933
0.00185565
0.0018622
0.0018687
0.0018754
0.00188213
0.001889
0.00189604
0.00190329
0.00191081
0.00191867
0.00192691
0.00193559
0.00194475
0.00195443
0.00196466
0.00197552
0.00198708
0.00199923
0.00201202
0.00202557
0.00204006
0.00205563
0.00207243
0.0020906
0.00211037
0.00213191
0.00215553
0.00218149
0.00221014
0.00224178
0.00227687
0.00231596
0.0023592
0.0024077
0.00246052
0.00252025
0.00258302
0.002655
0.00272619
0.00281043
0.00288421
0.00297893
0.00304805
0.00315129
0.00321021
0.00332153
0.00336924
0.00348492
0.00351879
0.00363469
0.00364537
0.00375513
0.00373228
0.00380719
0.00374534
0.00188634
0.00189959
0.00191004
0.00191889
0.00192523
0.00193168
0.00193797
0.00194377
0.00194946
0.00195509
0.00196084
0.00196684
0.00197303
0.00197946
0.00198609
0.00199296
0.00200003
0.00200733
0.00201487
0.00202267
0.00203079
0.00203925
0.0020481
0.00205739
0.00206716
0.00207746
0.00208838
0.0020999
0.00211224
0.00212519
0.0021389
0.00215339
0.00216892
0.00218567
0.00220379
0.00222346
0.00224489
0.00226831
0.00229398
0.00232216
0.00235317
0.00238732
0.00242487
0.00246611
0.00251128
0.00256067
0.00261416
0.00267215
0.00273363
0.00279977
0.00286756
0.00294069
0.00301174
0.0030908
0.00316123
0.00324595
0.00330906
0.0033994
0.00344983
0.00354494
0.00357942
0.00367423
0.00369084
0.00377807
0.00376546
0.0038378
0.00377571
0.00382023
0.00369226
0.00207216
0.00207821
0.00208425
0.00209015
0.00209569
0.00210104
0.00210632
0.0021116
0.00211696
0.00212246
0.00212818
0.00213416
0.00214046
0.00214709
0.00215407
0.00216142
0.00216916
0.00217729
0.00218586
0.00219489
0.00220441
0.0022145
0.00222517
0.0022365
0.00224853
0.00226137
0.00227502
0.00228941
0.00230473
0.00232101
0.00233852
0.00235746
0.00237799
0.0024003
0.00242459
0.00245107
0.00247996
0.00251145
0.00254575
0.00258302
0.0026234
0.00266698
0.00271368
0.00276349
0.00281618
0.00287165
0.0029293
0.00298916
0.00305006
0.00311275
0.00317489
0.00323922
0.00330053
0.00336645
0.00342457
0.00349344
0.00354487
0.00361791
0.00365524
0.00373161
0.00374822
0.00382128
0.00381185
0.00386743
0.00382247
0.0038496
0.00374517
0.00373773
0.0034794
0.00229427
0.00229931
0.0023043
0.00230941
0.00231452
0.00231965
0.00232485
0.0023302
0.00233576
0.00234157
0.00234771
0.00235423
0.00236117
0.00236859
0.00237654
0.00238505
0.00239418
0.00240397
0.00241448
0.00242575
0.00243784
0.00245082
0.00246475
0.00247955
0.00249529
0.00251212
0.00253012
0.00254946
0.00257035
0.00259291
0.00261727
0.00264354
0.00267186
0.00270233
0.00273502
0.00276999
0.00280726
0.00284679
0.0028885
0.00293226
0.00297788
0.00302511
0.00307358
0.00312305
0.0031731
0.00322356
0.00327386
0.00332416
0.0033736
0.00342311
0.00347096
0.00351968
0.00356529
0.00361388
0.00365571
0.00370533
0.00373949
0.00379164
0.0038106
0.00386393
0.00385569
0.00390378
0.00385884
0.00388137
0.00379279
0.0037659
0.00362551
0.0034893
0.0032582
0.00260669
0.00261454
0.00262209
0.00262963
0.00263709
0.0026445
0.00265193
0.00265945
0.00266715
0.00267509
0.00268335
0.002692
0.00270113
0.00271081
0.00272112
0.00273218
0.00274393
0.00275642
0.00276973
0.00278397
0.00279922
0.00281562
0.0028332
0.00285218
0.00287264
0.00289462
0.00291815
0.00294326
0.00296996
0.00299825
0.00302811
0.00305947
0.00309225
0.00312636
0.00316164
0.00319793
0.00323503
0.00327271
0.00331075
0.0033489
0.00338693
0.00342458
0.00346162
0.00349793
0.00353336
0.00356794
0.00360146
0.00363429
0.00366592
0.0036973
0.00372705
0.00375732
0.00378463
0.00381389
0.0038367
0.00386474
0.00387831
0.00390455
0.00389989
0.00392496
0.00388463
0.00390453
0.00380905
0.00380619
0.0036426
0.00359487
0.00332187
0.0031503
0.00271596
0.00306661
0.00307827
0.00308988
0.00310165
0.00311341
0.00312516
0.00313698
0.00314893
0.0031611
0.00317354
0.00318633
0.00319955
0.00321327
0.00322757
0.00324257
0.00325837
0.00327499
0.00329247
0.00331074
0.00332997
0.00334967
0.00336984
0.00339047
0.00341155
0.00343308
0.00345504
0.00347738
0.00350008
0.00352307
0.00354628
0.00356961
0.00359296
0.00361621
0.00363923
0.0036619
0.00368407
0.00370563
0.00372646
0.00374646
0.00376556
0.00378374
0.00380095
0.00381722
0.00383261
0.00384721
0.00386115
0.00387439
0.00388722
0.00389926
0.0039111
0.00392153
0.00393193
0.00393926
0.0039471
0.00394807
0.00395168
0.00394015
0.00393703
0.00390358
0.00389297
0.00381853
0.0037976
0.00365544
0.00360553
0.0033867
0.00322059
0.00288923
0.00262496
0.00228606
0.00383586
0.00385574
0.00387481
0.00389325
0.00391091
0.00392777
0.00394386
0.00395921
0.00397384
0.00398779
0.00400107
0.00401372
0.0040258
0.00403733
0.00404845
0.0040587
0.00406814
0.0040768
0.00408473
0.0040919
0.00409866
0.004105
0.00411091
0.00411637
0.00412134
0.00412579
0.00412969
0.004133
0.00413568
0.00413768
0.00413897
0.00413949
0.00413921
0.00413807
0.00413609
0.00413324
0.00412956
0.00412509
0.0041199
0.00411409
0.00410779
0.00410108
0.00409413
0.00408704
0.0040799
0.00407274
0.0040655
0.00405811
0.00405024
0.00404177
0.0040318
0.00402052
0.00400584
0.00398944
0.00396567
0.00394106
0.00390041
0.00386419
0.00379879
0.00374735
0.00363721
0.00356895
0.00337129
0.00322653
0.00290863
0.00269613
0.00232057
0.00208792
0.00174321
0.00477311
0.00478791
0.00480082
0.004812
0.00482137
0.00482892
0.00483474
0.00483891
0.00484146
0.00484238
0.0048417
0.0048395
0.00483591
0.00483099
0.00482474
0.0048175
0.00480929
0.00480011
0.00478995
0.0047788
0.00476669
0.00475363
0.00473961
0.00472464
0.00470873
0.00469184
0.00467398
0.00465511
0.00463524
0.0046143
0.00459227
0.00456909
0.00454478
0.00451931
0.0044928
0.0044652
0.00443676
0.00440749
0.00437752
0.00434719
0.00431691
0.00428699
0.00425767
0.004229
0.00420096
0.00417333
0.00414592
0.00411818
0.00408983
0.00405987
0.00402794
0.00399304
0.00395461
0.00391177
0.00386111
0.00380464
0.00373384
0.00366411
0.00356804
0.00347207
0.00329228
0.00313219
0.0028691
0.00266065
0.00231113
0.00208728
0.00171271
0.00152261
0.00128512
0.00529089
0.00529745
0.00530233
0.00530562
0.00530721
0.00530707
0.00530546
0.00530308
0.005299
0.00529292
0.00528438
0.00527422
0.00526382
0.00525233
0.00523959
0.00522551
0.00521003
0.00519313
0.00517483
0.00515511
0.00513403
0.00511159
0.00508777
0.00506261
0.00503608
0.00500814
0.00497885
0.00494809
0.00491595
0.00488213
0.00484656
0.00480904
0.00476962
0.00472791
0.00468427
0.00463786
0.00458977
0.00453762
0.0044819
0.00442534
0.00436975
0.00431603
0.00426445
0.00421478
0.00416665
0.00411933
0.00407238
0.00402462
0.00397597
0.00392408
0.00387003
0.00381346
0.00375393
0.00368669
0.00360759
0.00352078
0.00341341
0.00328674
0.00312641
0.0029484
0.00272176
0.0025132
0.00223256
0.00198842
0.00166645
0.00148612
0.00119946
0.00117555
0.00107338
0.0053474
0.00534744
0.00534595
0.00534305
0.00533907
0.00533351
0.00532847
0.00533717
0.00533351
0.00532462
0.00530269
0.00528397
0.00528764
0.00528051
0.00527115
0.00525976
0.00524646
0.0052314
0.00521475
0.00519652
0.00517707
0.00515622
0.00513349
0.00511006
0.00508451
0.00505653
0.00502722
0.0049952
0.00496214
0.00492775
0.00489257
0.00485508
0.00481403
0.00476918
0.00471997
0.00466588
0.00460303
0.00450538
0.00439427
0.00429431
0.00420546
0.00412601
0.00405364
0.00398604
0.00392143
0.0038579
0.00379476
0.00372994
0.00366395
0.00359232
0.00352192
0.00344669
0.00335609
0.0032466
0.00311642
0.0029709
0.0028162
0.00265331
0.0024624
0.0022674
0.00202911
0.00177558
0.00152768
0.0013245
0.00113813
0.00101975
0.000954497
0.00102829
0.00104526
0.0049298
0.00491954
0.00490857
0.00490008
0.00489076
0.00487945
0.0048664
0.00485116
0.00483399
0.00481557
0.00478092
0.0047455
0.00471264
0.0046807
0.00464913
0.00461763
0.00458604
0.00455461
0.0045233
0.00449225
0.00446305
0.00443377
0.00440547
0.00439478
0.00436966
0.0043355
0.00430471
0.00425095
0.00421246
0.0041779
0.00416641
0.00414515
0.00411218
0.00407013
0.00402323
0.00397108
0.00391481
0.00385343
0.00378771
0.00372006
0.00365191
0.00358427
0.00351704
0.00344953
0.0033811
0.00331017
0.00323635
0.0031569
0.00307209
0.00297704
0.00287343
0.00276053
0.00264211
0.00251151
0.00237297
0.00222634
0.00207612
0.00188878
0.00166845
0.0014509
0.0012562
0.00109961
0.000961623
0.000855691
0.000825649
0.000865201
0.000935334
0.00105848
0.00115565
0.00392845
0.00390789
0.00388653
0.00386433
0.00384144
0.00381785
0.00379372
0.00376932
0.00374465
0.00371955
0.00369307
0.00366587
0.00363776
0.00360878
0.00357863
0.00354773
0.00351639
0.00348515
0.00345441
0.00342359
0.00339216
0.00336018
0.00332775
0.00329529
0.00326236
0.00322895
0.00319531
0.00316109
0.00312706
0.00309317
0.00306054
0.00302845
0.00300477
0.00297314
0.00296292
0.00294455
0.0029129
0.00287386
0.00283028
0.00278396
0.00273555
0.00268454
0.00263019
0.00257094
0.0025066
0.00243526
0.00235822
0.00227205
0.00218001
0.00207678
0.00196854
0.00184791
0.00172223
0.00158611
0.00144804
0.00130702
0.00118666
0.00106592
0.000914802
0.000802516
0.000722021
0.000676816
0.000696442
0.00075846
0.000862626
0.000963907
0.00111254
0.00123903
0.00133397
0.00216319
0.00215159
0.00213848
0.0021162
0.00209676
0.00207763
0.00205935
0.00204247
0.00202594
0.00200994
0.00199423
0.00198898
0.00197746
0.0019629
0.00193879
0.00191725
0.00189634
0.00187842
0.00187199
0.00186203
0.00183602
0.00181256
0.00178986
0.00176785
0.00174635
0.00172522
0.0017043
0.00168351
0.00166275
0.00164193
0.00162114
0.00160015
0.00157921
0.00155784
0.00153623
0.0015139
0.001491
0.00146691
0.00143989
0.00140839
0.00137432
0.00134503
0.00130923
0.00126313
0.00121079
0.00115245
0.00109231
0.0010292
0.000967853
0.000905859
0.000848395
0.000792143
0.000742851
0.000696538
0.000652726
0.000623559
0.000594692
0.00056541
0.000564266
0.000598327
0.000635308
0.000697855
0.000763414
0.000850182
0.000954364
0.00104907
0.00118656
0.00126801
0.00134159
0.000385882
0.000390634
0.000389079
0.000395468
0.000391214
0.000389709
0.000395006
0.000398754
0.000399643
0.000403901
0.000403666
0.000406604
0.000406118
0.000406878
0.000401837
0.000400585
0.000399753
0.000406301
0.000403705
0.000409999
0.000406944
0.000406369
0.000411494
0.000412981
0.000413356
0.000413328
0.000413393
0.000413652
0.000414119
0.000414722
0.000415441
0.000416222
0.000417052
0.000417908
0.000418773
0.00041963
0.000420475
0.00042129
0.000422069
0.000422803
0.000423487
0.000424101
0.000424618
0.000424996
0.000425208
0.000425233
0.000425043
0.000424621
0.000423913
0.000422868
0.000421404
0.00041946
0.000416911
0.000413813
0.000409864
0.000405154
0.000399372
0.000392228
0.000383115
0.00037235
0.000359511
0.000343999
0.000329017
0.00030688
0.000297756
0.000295897
0.000306043
0.000332907
0.000368215
0.00133508
0.0013352
0.00133356
0.00133292
0.00133087
0.00132838
0.00132602
0.00132344
0.00132339
0.00131941
0.00131897
0.00131392
0.0013147
0.00131481
0.00131559
0.00131409
0.00131479
0.00131569
0.00131591
0.00131526
0.00131697
0.00131882
0.00131817
0.00131833
0.00132052
0.00132221
0.00132441
0.00132531
0.00132624
0.00132518
0.00132331
0.00132321
0.0013242
0.00132499
0.00132583
0.00132541
0.00132535
0.00132433
0.00132287
0.00132209
0.00132006
0.00132105
0.00132189
0.0013213
0.00132105
0.00131951
0.0013188
0.00131899
0.00131833
0.00131651
0.00131464
0.0013141
0.00131542
0.00131629
0.00131703
0.00131729
0.00131719
0.00131649
0.00131577
0.00133899
0.00133749
0.00133576
0.00133465
0.00133363
0.00133251
0.0013312
0.0013293
0.00132552
0.00132515
0.0013226
0.00132168
0.00132091
0.00132187
0.00132179
0.00132319
0.00132224
0.00132268
0.00132312
0.00132353
0.00132456
0.00132539
0.00132469
0.00132554
0.00132766
0.00132915
0.00133076
0.00133175
0.00133221
0.00133109
0.00132952
0.00132943
0.00133008
0.00133099
0.00133182
0.0013316
0.00133095
0.00133071
0.00132956
0.00132878
0.00132641
0.00132663
0.00132694
0.00132735
0.00132741
0.00132662
0.00132566
0.0013257
0.00132491
0.00132553
0.00132394
0.00132168
0.00132049
0.00132051
0.00132094
0.00132159
0.00132232
0.00132289
0.00132315
0.00134303
0.00134224
0.00134222
0.00133975
0.00133852
0.00133454
0.00133443
0.0013325
0.00133277
0.00133072
0.00132991
0.00132959
0.00132959
0.00133019
0.00133001
0.00133061
0.0013303
0.00133048
0.00133067
0.0013324
0.00133224
0.00133255
0.00133244
0.0013337
0.00133583
0.00133707
0.00133809
0.00133907
0.0013391
0.00133822
0.00133644
0.00133612
0.0013364
0.00133772
0.00133871
0.00133863
0.00133841
0.00133769
0.00133691
0.00133695
0.00133434
0.00133357
0.00133357
0.00133372
0.00133412
0.0013341
0.00133334
0.00133324
0.00133263
0.00133264
0.00133292
0.00133221
0.00133091
0.00132945
0.00132866
0.00132835
0.00132859
0.00132895
0.0013295
0.00134936
0.00134969
0.00134721
0.00134625
0.00134555
0.0013466
0.00134433
0.00134431
0.00134318
0.00134186
0.00134225
0.00134181
0.001341
0.00134087
0.00134168
0.00134076
0.00134008
0.00134061
0.00134372
0.001342
0.00134206
0.00134183
0.00134163
0.00134261
0.00134503
0.00134601
0.00134685
0.00134766
0.00134758
0.00134669
0.00134519
0.00134491
0.00134509
0.00134588
0.00134686
0.001347
0.00134682
0.00134625
0.00134541
0.00134587
0.00134387
0.00134238
0.00134197
0.00134193
0.00134217
0.0013426
0.00134232
0.00134227
0.00134188
0.00134154
0.00134171
0.00134187
0.00134159
0.00134073
0.0013397
0.00133878
0.001338
0.00133869
0.00133899
0.0013633
0.00136336
0.00135925
0.00135795
0.00135735
0.00135861
0.00135498
0.00135327
0.00135421
0.0013528
0.0013514
0.00135294
0.00135299
0.00135434
0.00135366
0.0013518
0.00135146
0.00135218
0.00135264
0.00135254
0.00135229
0.00135229
0.00135201
0.00135315
0.00135544
0.00135597
0.00135674
0.00135756
0.00135729
0.00135642
0.00135497
0.00135459
0.00135472
0.00135547
0.00135642
0.00135664
0.00135659
0.00135611
0.0013553
0.00135564
0.00135465
0.001353
0.00135209
0.00135174
0.00135157
0.00135214
0.00135224
0.00135238
0.00135231
0.00135205
0.00135206
0.0013523
0.00135258
0.00135248
0.0013521
0.00135127
0.00135094
0.0013493
0.00135122
0.00136971
0.00137111
0.00137199
0.00136974
0.00136999
0.0013688
0.00136877
0.00136892
0.00136846
0.00136843
0.00136932
0.0013697
0.00136946
0.00136943
0.00136867
0.00136613
0.0013669
0.00136577
0.00136527
0.00136517
0.00136541
0.00136511
0.00136518
0.00136648
0.00136821
0.00136832
0.00136886
0.00136951
0.00136894
0.00136809
0.00136663
0.00136616
0.00136627
0.00136696
0.00136801
0.00136826
0.00136836
0.0013681
0.00136748
0.00136753
0.00136769
0.0013658
0.00136467
0.00136432
0.00136371
0.00136369
0.00136426
0.0013647
0.00136477
0.00136454
0.00136438
0.00136447
0.00136482
0.00136516
0.00136539
0.0013652
0.0013651
0.00136438
0.00136388
0.00140606
0.00140455
0.00140145
0.00139913
0.00139657
0.00139362
0.00139377
0.00139281
0.00139213
0.00139219
0.00139246
0.0013906
0.00138857
0.00138541
0.00138454
0.00138234
0.00138256
0.00138099
0.00138184
0.00138226
0.0013799
0.00137947
0.00137985
0.00138086
0.00138166
0.00138216
0.00138282
0.00138331
0.00138272
0.00138188
0.00138044
0.00137985
0.00137993
0.00138048
0.00138167
0.00138197
0.00138211
0.00138201
0.00138153
0.00138132
0.00138184
0.00138129
0.00137947
0.00137852
0.00137879
0.00137812
0.0013775
0.00137808
0.00137905
0.00137966
0.00137993
0.00137994
0.00137991
0.00138004
0.0013804
0.00138059
0.00138066
0.00138033
0.00138028
0.00143328
0.00142885
0.00142728
0.00142452
0.00142578
0.00142504
0.00142146
0.00141907
0.00141736
0.00141506
0.00141134
0.00140617
0.0014055
0.00140387
0.0014032
0.00140267
0.00140284
0.00140279
0.00140238
0.00140012
0.00139826
0.00139793
0.00139831
0.00139892
0.00139952
0.00139989
0.00140012
0.00140048
0.00139949
0.00139852
0.00139705
0.0013964
0.00139648
0.00139692
0.00139826
0.00139883
0.00139892
0.00139926
0.00139921
0.00139898
0.00139921
0.00139952
0.00139826
0.00139704
0.00139587
0.00139749
0.00139769
0.00139643
0.00139513
0.00139475
0.00139512
0.001396
0.00139729
0.0013977
0.0013972
0.00139966
0.00140109
0.00140089
0.00140261
0.00146438
0.00145809
0.00145866
0.00145629
0.00145148
0.00144751
0.00144175
0.00143506
0.00143369
0.00143218
0.00143015
0.00142857
0.00142768
0.00142649
0.00142581
0.0014253
0.00142496
0.00142433
0.00142293
0.00142074
0.00141894
0.00141846
0.00141858
0.00141888
0.00141903
0.00141965
0.00141992
0.00142041
0.00141925
0.00141823
0.00141672
0.00141603
0.00141605
0.00141641
0.00141754
0.00141875
0.00141885
0.00141919
0.0014193
0.00141928
0.0014197
0.00142054
0.00142065
0.00141847
0.00141833
0.00141836
0.00141925
0.00142052
0.00142217
0.0014223
0.00142074
0.00141806
0.00141867
0.00141892
0.00142155
0.00142297
0.00142493
0.00142742
0.00142776
0.00147829
0.00147595
0.00147408
0.00147159
0.0014688
0.00146678
0.00146417
0.00146243
0.00146104
0.00145989
0.00145838
0.00145707
0.00145587
0.00145477
0.00145404
0.00145335
0.00145252
0.00145096
0.00144876
0.00144652
0.00144514
0.00144478
0.00144483
0.001445
0.0014453
0.00144539
0.00144538
0.00144531
0.00144356
0.00144234
0.00144075
0.00144007
0.0014401
0.00144052
0.0014415
0.00144303
0.00144396
0.0014443
0.00144445
0.00144451
0.00144514
0.00144636
0.00144741
0.0014481
0.0014457
0.00144446
0.00144305
0.00144374
0.00144442
0.00144669
0.00144854
0.00144964
0.00145237
0.00145462
0.00145295
0.00145301
0.00145173
0.00145045
0.00145476
0.00151267
0.00151084
0.00150849
0.00150637
0.00150416
0.00150216
0.00150008
0.00149826
0.0014965
0.00149483
0.00149304
0.00149151
0.00149005
0.00148877
0.00148749
0.00148595
0.00148389
0.00148114
0.00147856
0.00147646
0.00147526
0.00147447
0.00147404
0.00147388
0.00147407
0.00147397
0.00147412
0.00147398
0.00147219
0.00147095
0.00146931
0.00146859
0.00146855
0.00146894
0.00146985
0.00147117
0.00147268
0.00147326
0.00147366
0.00147458
0.00147442
0.00147386
0.0014769
0.00147934
0.00148151
0.00148049
0.00148056
0.0014807
0.00147722
0.0014718
0.00147905
0.00148061
0.00148188
0.00148314
0.0014855
0.0014819
0.00148063
0.00148401
0.00148523
0.00155631
0.00155432
0.00155165
0.00154939
0.00154703
0.00154482
0.00154271
0.00154072
0.00153884
0.00153697
0.00153514
0.00153337
0.00153151
0.00152958