/*--------------------------------*- C++ -*----------------------------------*\
| =========                 |                                                 |
| \\      /  F ield         | OpenFOAM: The Open Source CFD Toolbox           |
|  \\    /   O peration     | Version:  2312                                  |
|   \\  /    A nd           | Website:  www.openfoam.com                      |
|    \\/     M anipulation  |                                                 |
\*---------------------------------------------------------------------------*/
FoamFile
{
    version     2.0;
    format      ascii;
    arch        "LSB;label=32;scalar=64";
    class       volScalarField;
    location    "600";
    object      p;
}
// * * * * * * * * * * * * * * * * * * * * * * * * * * * * * * * * * * * * * //

dimensions      [0 2 -2 0 0 0 0];

internalField   nonuniform List<scalar> 
76025
(
0.00583686
-0.000316627
-0.00656792
-0.0128922
-0.0191839
-0.0255837
-0.032152
-0.0385585
-0.0451227
-0.051612
-0.0581174
-0.0646326
-0.0711659
-0.0776528
-0.0842156
-0.0907002
-0.0970748
-0.10346
-0.109821
-0.116049
-0.12217
-0.128334
-0.134301
-0.140081
-0.145753
-0.151217
-0.156724
-0.162061
-0.167009
-0.172071
-0.176835
-0.181126
-0.185307
-0.189207
-0.192901
-0.196322
-0.199334
-0.2024
-0.204908
-0.207061
-0.208799
-0.210228
-0.211635
-0.212362
-0.212787
-0.212752
-0.21254
-0.21177
-0.210441
-0.208854
-0.206968
-0.20459
-0.201794
-0.198596
-0.194967
-0.190543
-0.186189
-0.181064
-0.17565
-0.169988
-0.163975
-0.157211
-0.149986
-0.142768
-0.135092
-0.126486
-0.118305
-0.109993
-0.0999485
0.00425327
-0.00225488
-0.00879839
-0.0154384
-0.0221495
-0.0289366
-0.0357394
-0.0425685
-0.0494363
-0.0563053
-0.0631857
-0.0700662
-0.0769501
-0.0838243
-0.0906539
-0.0974246
-0.104194
-0.11088
-0.117564
-0.124131
-0.130655
-0.137045
-0.143293
-0.149383
-0.155363
-0.161224
-0.166947
-0.172434
-0.177723
-0.182832
-0.187713
-0.192418
-0.196867
-0.200996
-0.20491
-0.208528
-0.211861
-0.214897
-0.217557
-0.219904
-0.221873
-0.223522
-0.224836
-0.225684
-0.226173
-0.226276
-0.226023
-0.225293
-0.224124
-0.22262
-0.220755
-0.21844
-0.21569
-0.212512
-0.208868
-0.204717
-0.200255
-0.195305
-0.189957
-0.184251
-0.178201
-0.171608
-0.16453
-0.157205
-0.149511
-0.141307
-0.13297
-0.12441
-0.114924
0.00222996
-0.00461659
-0.0115122
-0.0185255
-0.0256313
-0.0327754
-0.0399507
-0.0471627
-0.054401
-0.0616593
-0.0689246
-0.0761883
-0.0834474
-0.0906859
-0.0978804
-0.105044
-0.112163
-0.11923
-0.126234
-0.133162
-0.13999
-0.146692
-0.153267
-0.159711
-0.166019
-0.172179
-0.178151
-0.183924
-0.189502
-0.194865
-0.200029
-0.204969
-0.209626
-0.213997
-0.218092
-0.221892
-0.225379
-0.228541
-0.231374
-0.233861
-0.235974
-0.237711
-0.239078
-0.240055
-0.240645
-0.240839
-0.240635
-0.240011
-0.238966
-0.237522
-0.235678
-0.233405
-0.230695
-0.227548
-0.223956
-0.219908
-0.215454
-0.210578
-0.205289
-0.199612
-0.193543
-0.187031
-0.180088
-0.172799
-0.165162
-0.157127
-0.148792
-0.140233
-0.130945
-4.27471e-05
-0.00726531
-0.0145501
-0.0219586
-0.0294562
-0.0370025
-0.044581
-0.0521879
-0.0598181
-0.0674672
-0.075126
-0.0827847
-0.0904329
-0.0980593
-0.105652
-0.113204
-0.120703
-0.128142
-0.135505
-0.14278
-0.149949
-0.157001
-0.163925
-0.170707
-0.177334
-0.183792
-0.190066
-0.196142
-0.202009
-0.207652
-0.213064
-0.218222
-0.223106
-0.2277
-0.231995
-0.235982
-0.239649
-0.242985
-0.245976
-0.248601
-0.250845
-0.252704
-0.254182
-0.255271
-0.255961
-0.256247
-0.256126
-0.255588
-0.254623
-0.253238
-0.251436
-0.249207
-0.246542
-0.243439
-0.239896
-0.235914
-0.23151
-0.22669
-0.221456
-0.215821
-0.209787
-0.203342
-0.19649
-0.189267
-0.181694
-0.173768
-0.165523
-0.157068
-0.148023
-0.00251344
-0.0101377
-0.0178274
-0.0256473
-0.0335596
-0.041525
-0.0495226
-0.0575465
-0.0655945
-0.0736617
-0.0817383
-0.0898125
-0.0978728
-0.105909
-0.11391
-0.121865
-0.129764
-0.137594
-0.145344
-0.152998
-0.160544
-0.167967
-0.175252
-0.182386
-0.189354
-0.196143
-0.202741
-0.209129
-0.215296
-0.221227
-0.226908
-0.232324
-0.237457
-0.242292
-0.246816
-0.25102
-0.25489
-0.258414
-0.261573
-0.264354
-0.266745
-0.268741
-0.27034
-0.271538
-0.272329
-0.272708
-0.272667
-0.272202
-0.271305
-0.269978
-0.268224
-0.266038
-0.263417
-0.260358
-0.256862
-0.252933
-0.248578
-0.243806
-0.238621
-0.233033
-0.227046
-0.220662
-0.213885
-0.206739
-0.199242
-0.191412
-0.183269
-0.174941
-0.166078
-0.00524397
-0.0132945
-0.0214125
-0.0296684
-0.0380217
-0.0464301
-0.0548718
-0.0633405
-0.0718342
-0.080347
-0.0888683
-0.0973855
-0.105887
-0.114361
-0.122796
-0.131182
-0.139506
-0.147756
-0.155918
-0.163978
-0.171921
-0.179734
-0.187402
-0.194908
-0.20224
-0.209383
-0.216321
-0.22304
-0.229525
-0.235761
-0.241732
-0.247425
-0.252821
-0.257907
-0.262669
-0.267093
-0.271168
-0.274879
-0.278212
-0.281153
-0.283693
-0.285824
-0.287544
-0.288851
-0.289739
-0.290204
-0.290241
-0.289845
-0.289013
-0.287746
-0.286044
-0.283906
-0.28133
-0.278315
-0.274864
-0.270981
-0.266672
-0.261947
-0.256812
-0.251274
-0.24534
-0.239019
-0.232314
-0.225248
-0.217832
-0.210099
-0.202053
-0.193836
-0.185082
-0.00829683
-0.0168009
-0.025376
-0.0340974
-0.0429212
-0.0518021
-0.0607168
-0.0696586
-0.0786251
-0.0876102
-0.0966029
-0.10559
-0.11456
-0.123499
-0.132396
-0.141239
-0.150014
-0.158708
-0.167306
-0.175794
-0.184158
-0.192382
-0.200452
-0.208352
-0.216066
-0.223579
-0.230876
-0.237941
-0.244758
-0.251312
-0.257586
-0.263567
-0.269238
-0.274584
-0.279591
-0.284244
-0.28853
-0.292438
-0.295952
-0.299061
-0.301754
-0.304024
-0.30587
-0.307289
-0.308279
-0.308834
-0.308951
-0.308627
-0.307861
-0.306652
-0.305001
-0.302907
-0.300372
-0.297397
-0.293986
-0.290143
-0.285878
-0.281197
-0.276109
-0.270622
-0.264745
-0.258487
-0.251855
-0.244873
-0.237546
-0.229917
-0.22197
-0.213845
-0.205067
-0.0117124
-0.0206992
-0.029761
-0.0389776
-0.0483019
-0.057685
-0.0671025
-0.0765469
-0.0860154
-0.0955019
-0.104995
-0.114481
-0.123945
-0.133377
-0.142761
-0.152086
-0.161337
-0.170501
-0.179561
-0.188504
-0.197313
-0.205973
-0.214469
-0.222784
-0.230903
-0.238807
-0.246482
-0.25391
-0.261076
-0.267964
-0.274557
-0.280841
-0.286799
-0.292417
-0.297679
-0.30257
-0.307078
-0.311191
-0.314893
-0.318174
-0.321025
-0.323438
-0.325412
-0.326946
-0.328038
-0.328684
-0.328881
-0.328627
-0.327922
-0.326766
-0.325161
-0.323107
-0.320609
-0.317669
-0.314293
-0.310488
-0.306262
-0.301623
-0.296581
-0.291145
-0.285326
-0.279132
-0.272579
-0.265684
-0.258461
-0.250954
-0.243136
-0.235139
-0.226376
-0.0155382
-0.0250388
-0.0346184
-0.0443615
-0.0542172
-0.0641336
-0.0740847
-0.0840627
-0.094065
-0.104085
-0.11411
-0.124126
-0.134117
-0.14407
-0.153971
-0.163806
-0.173562
-0.183223
-0.192774
-0.202198
-0.21148
-0.220603
-0.22955
-0.238304
-0.246849
-0.255166
-0.263239
-0.271052
-0.278586
-0.285826
-0.292756
-0.299358
-0.305617
-0.311518
-0.317045
-0.322183
-0.326921
-0.331246
-0.335143
-0.338603
-0.341615
-0.344174
-0.346279
-0.347928
-0.349121
-0.349854
-0.350127
-0.349938
-0.349288
-0.34818
-0.346615
-0.344596
-0.34213
-0.339219
-0.335874
-0.3321
-0.327907
-0.323306
-0.318308
-0.312921
-0.307159
-0.301033
-0.294564
-0.287765
-0.280661
-0.273289
-0.265642
-0.257859
-0.249579
-0.0198392
-0.0298869
-0.0400171
-0.0503204
-0.0607419
-0.0712263
-0.0817457
-0.0922918
-0.102862
-0.113449
-0.124039
-0.134617
-0.145167
-0.155675
-0.166126
-0.176506
-0.186798
-0.196988
-0.207059
-0.216993
-0.226775
-0.236388
-0.245812
-0.255029
-0.264023
-0.272776
-0.281269
-0.289486
-0.297408
-0.305018
-0.312299
-0.319235
-0.325809
-0.332006
-0.33781
-0.343207
-0.348184
-0.352729
-0.356828
-0.36047
-0.363647
-0.366353
-0.368587
-0.370349
-0.371639
-0.372456
-0.372798
-0.372668
-0.372066
-0.370997
-0.369464
-0.367473
-0.365029
-0.362141
-0.358817
-0.355066
-0.350901
-0.346332
-0.341371
-0.336031
-0.330329
-0.324276
-0.317897
-0.311205
-0.304231
-0.296997
-0.28952
-0.281934
-0.273993
-0.0246882
-0.0353181
-0.0460345
-0.0569343
-0.0679587
-0.0790482
-0.0901734
-0.101325
-0.1125
-0.12369
-0.134882
-0.146059
-0.157203
-0.168301
-0.179336
-0.190293
-0.201157
-0.211909
-0.222532
-0.233008
-0.24332
-0.25345
-0.263379
-0.273087
-0.282556
-0.291768
-0.300705
-0.309348
-0.317678
-0.325677
-0.333329
-0.340615
-0.347519
-0.354026
-0.360119
-0.365785
-0.371011
-0.375782
-0.380086
-0.383914
-0.387256
-0.390107
-0.392468
-0.394338
-0.39572
-0.396612
-0.397017
-0.396936
-0.396373
-0.395332
-0.393821
-0.391845
-0.389413
-0.386535
-0.383221
-0.379483
-0.375335
-0.37079
-0.365863
-0.360569
-0.354928
-0.348956
-0.342676
-0.336105
-0.329271
-0.322186
-0.31486
-0.307404
-0.299516
-0.0301679
-0.0414191
-0.0527599
-0.0642945
-0.0759604
-0.0876945
-0.0994655
-0.111263
-0.123083
-0.134917
-0.146751
-0.158565
-0.170343
-0.182067
-0.193723
-0.205294
-0.216762
-0.228111
-0.23932
-0.250371
-0.261246
-0.271924
-0.282387
-0.292615
-0.302588
-0.312287
-0.321693
-0.330786
-0.339547
-0.347958
-0.355999
-0.363654
-0.370905
-0.377735
-0.384129
-0.390073
-0.395553
-0.400555
-0.405068
-0.409081
-0.412588
-0.415582
-0.418065
-0.420038
-0.421503
-0.422463
-0.422918
-0.422874
-0.422336
-0.421311
-0.419805
-0.41783
-0.415394
-0.41251
-0.409192
-0.405454
-0.401311
-0.396782
-0.391883
-0.386636
-0.381059
-0.375176
-0.369006
-0.362572
-0.355894
-0.348995
-0.341857
-0.334579
-0.326255
-0.0363846
-0.0482978
-0.0603035
-0.0725133
-0.0848605
-0.0972786
-0.109734
-0.122217
-0.134722
-0.147241
-0.159757
-0.172251
-0.184705
-0.1971
-0.20942
-0.221646
-0.233761
-0.245745
-0.257578
-0.269241
-0.280712
-0.291972
-0.303002
-0.31378
-0.324286
-0.3345
-0.344402
-0.35397
-0.363186
-0.372029
-0.38048
-0.388521
-0.396134
-0.403302
-0.410009
-0.41624
-0.421981
-0.42722
-0.431943
-0.436143
-0.439811
-0.442944
-0.445542
-0.447609
-0.449147
-0.450161
-0.450653
-0.45063
-0.4501
-0.44907
-0.447552
-0.445556
-0.443096
-0.440187
-0.436846
-0.433091
-0.428941
-0.424418
-0.419544
-0.414342
-0.408835
-0.403046
-0.396999
-0.390715
-0.384216
-0.377527
-0.370644
-0.363719
-0.356369
-0.0434495
-0.0560706
-0.0687879
-0.0817205
-0.094796
-0.107944
-0.121128
-0.134339
-0.147572
-0.160817
-0.174058
-0.187273
-0.200444
-0.21355
-0.226575
-0.2395
-0.252303
-0.264965
-0.277463
-0.289778
-0.301886
-0.313768
-0.325401
-0.336765
-0.347838
-0.358598
-0.369024
-0.379095
-0.38879
-0.398089
-0.406971
-0.415417
-0.423408
-0.430927
-0.437958
-0.444486
-0.450495
-0.455973
-0.460909
-0.465293
-0.469119
-0.472383
-0.475087
-0.477235
-0.478832
-0.479882
-0.480391
-0.480368
-0.479822
-0.478763
-0.477206
-0.475164
-0.472655
-0.469697
-0.466312
-0.462522
-0.458351
-0.453825
-0.448968
-0.443808
-0.438371
-0.432682
-0.426766
-0.420646
-0.414346
-0.407886
-0.401247
-0.394541
-0.387146
-0.0514953
-0.0648738
-0.0783527
-0.0920583
-0.105913
-0.119842
-0.133807
-0.147796
-0.161807
-0.175828
-0.189841
-0.203825
-0.217758
-0.231621
-0.245394
-0.259058
-0.272592
-0.285973
-0.299179
-0.312187
-0.324974
-0.337518
-0.349795
-0.361782
-0.373457
-0.384798
-0.395781
-0.406385
-0.416587
-0.426366
-0.4357
-0.444571
-0.452958
-0.460843
-0.468209
-0.475041
-0.481323
-0.487043
-0.49219
-0.496754
-0.50073
-0.504115
-0.50691
-0.509123
-0.510758
-0.511822
-0.512322
-0.51227
-0.511678
-0.510559
-0.508931
-0.506812
-0.504225
-0.501192
-0.497739
-0.493893
-0.489683
-0.485139
-0.480288
-0.475162
-0.469789
-0.4642
-0.45842
-0.452479
-0.4464
-0.440211
-0.433915
-0.427645
-0.421177
-0.0607048
-0.0748884
-0.0891751
-0.103702
-0.118387
-0.133149
-0.147948
-0.162772
-0.177615
-0.192466
-0.207306
-0.222111
-0.23686
-0.251532
-0.266105
-0.280558
-0.29487
-0.309016
-0.322974
-0.336718
-0.350226
-0.363471
-0.376431
-0.389081
-0.401396
-0.413352
-0.424926
-0.436093
-0.446831
-0.457117
-0.466928
-0.476244
-0.485044
-0.493309
-0.501022
-0.508166
-0.514726
-0.520688
-0.526042
-0.530779
-0.534894
-0.538384
-0.541253
-0.543507
-0.545153
-0.546201
-0.54666
-0.546544
-0.545869
-0.544653
-0.542918
-0.540687
-0.537987
-0.534847
-0.531297
-0.527369
-0.523094
-0.518508
-0.513642
-0.508532
-0.503209
-0.49771
-0.492065
-0.486309
-0.480466
-0.474578
-0.468638
-0.462757
-0.456615
-0.0712753
-0.0863218
-0.101474
-0.116881
-0.132453
-0.148105
-0.163793
-0.179506
-0.195236
-0.210972
-0.226692
-0.242373
-0.257992
-0.273525
-0.288951
-0.304247
-0.319389
-0.334352
-0.349111
-0.36364
-0.377915
-0.391908
-0.405595
-0.418948
-0.431943
-0.444553
-0.456753
-0.468518
-0.479823
-0.490643
-0.500956
-0.510739
-0.519971
-0.528632
-0.536702
-0.544164
-0.551004
-0.557207
-0.562762
-0.567661
-0.571898
-0.575473
-0.57839
-0.580657
-0.582283
-0.583279
-0.583659
-0.583439
-0.58264
-0.581285
-0.5794
-0.577014
-0.574159
-0.570869
-0.56718
-0.563127
-0.558749
-0.554084
-0.549169
-0.544044
-0.538747
-0.533319
-0.527795
-0.522219
-0.51662
-0.511055
-0.505522
-0.500129
-0.494511
-0.0834461
-0.0994195
-0.1155
-0.131847
-0.148366
-0.164967
-0.181605
-0.198265
-0.214942
-0.231621
-0.248281
-0.264896
-0.281442
-0.297895
-0.314231
-0.330425
-0.346453
-0.362288
-0.377902
-0.393269
-0.408362
-0.423153
-0.437614
-0.451717
-0.465435
-0.478741
-0.491606
-0.504005
-0.51591
-0.527295
-0.538137
-0.548411
-0.558093
-0.567163
-0.5756
-0.583387
-0.590507
-0.596946
-0.602693
-0.60774
-0.612081
-0.615717
-0.618654
-0.620901
-0.62247
-0.623375
-0.623632
-0.623262
-0.62229
-0.620743
-0.618653
-0.616054
-0.612983
-0.609481
-0.605589
-0.601351
-0.596809
-0.59201
-0.586995
-0.581811
-0.576501
-0.57111
-0.565682
-0.560269
-0.554912
-0.549679
-0.544599
-0.539791
-0.535036
-0.0975411
-0.114508
-0.131581
-0.148933
-0.166465
-0.18408
-0.201731
-0.219404
-0.23709
-0.254777
-0.27244
-0.290053
-0.307589
-0.325023
-0.34233
-0.359484
-0.376458
-0.393222
-0.40975
-0.426011
-0.441978
-0.457619
-0.472906
-0.487809
-0.502298
-0.516344
-0.529917
-0.542988
-0.555529
-0.567512
-0.57891
-0.589697
-0.599849
-0.609343
-0.618158
-0.626274
-0.633674
-0.640343
-0.646271
-0.651449
-0.655873
-0.659542
-0.662466
-0.664655
-0.666123
-0.666886
-0.666965
-0.666382
-0.665168
-0.663354
-0.660978
-0.65808
-0.654705
-0.650901
-0.646717
-0.642204
-0.637415
-0.632402
-0.627216
-0.621908
-0.616527
-0.611126
-0.605758
-0.600474
-0.595329
-0.590401
-0.585751
-0.581515
-0.577596
-0.113929
-0.13196
-0.150095
-0.168522
-0.187136
-0.205835
-0.22457
-0.243326
-0.262093
-0.280857
-0.299593
-0.318273
-0.336869
-0.355354
-0.373701
-0.391881
-0.409866
-0.427626
-0.445131
-0.462348
-0.479248
-0.495797
-0.511965
-0.52772
-0.543029
-0.557861
-0.572184
-0.585967
-0.59918
-0.611791
-0.623774
-0.6351
-0.645742
-0.655676
-0.664879
-0.673331
-0.681012
-0.687908
-0.694006
-0.699297
-0.703777
-0.707447
-0.710316
-0.712397
-0.713703
-0.714254
-0.714073
-0.713188
-0.711633
-0.709446
-0.706672
-0.703358
-0.699558
-0.695328
-0.690728
-0.685821
-0.68067
-0.675335
-0.669878
-0.664356
-0.65883
-0.653358
-0.647991
-0.642784
-0.637797
-0.633123
-0.628807
-0.624981
-0.621568
-0.133235
-0.152407
-0.171677
-0.191253
-0.211024
-0.230881
-0.250775
-0.270688
-0.290612
-0.310528
-0.330412
-0.350233
-0.369961
-0.389568
-0.409024
-0.4283
-0.447364
-0.466185
-0.484729
-0.502965
-0.520858
-0.538375
-0.555481
-0.572142
-0.588323
-0.60399
-0.61911
-0.633648
-0.647571
-0.660847
-0.673446
-0.685335
-0.696488
-0.706877
-0.716477
-0.725264
-0.733219
-0.740325
-0.746567
-0.751935
-0.756424
-0.760035
-0.762778
-0.764666
-0.765716
-0.765948
-0.76539
-0.764076
-0.762046
-0.759346
-0.756027
-0.752148
-0.74777
-0.742961
-0.737793
-0.732339
-0.726674
-0.720874
-0.715014
-0.709165
-0.70339
-0.69775
-0.692293
-0.687088
-0.682184
-0.67765
-0.673469
-0.669877
-0.666574
-0.156135
-0.176525
-0.197
-0.217791
-0.238782
-0.259862
-0.280979
-0.302114
-0.323258
-0.34439
-0.365483
-0.386505
-0.407427
-0.428215
-0.448841
-0.469271
-0.489473
-0.509413
-0.529056
-0.548366
-0.567307
-0.585843
-0.603938
-0.621553
-0.638652
-0.655198
-0.671154
-0.686484
-0.701151
-0.715121
-0.728359
-0.740833
-0.752511
-0.763363
-0.773361
-0.78248
-0.790696
-0.79799
-0.804346
-0.809751
-0.814198
-0.817688
-0.82023
-0.821837
-0.822526
-0.822321
-0.821255
-0.819367
-0.816705
-0.813325
-0.80929
-0.804671
-0.799541
-0.793979
-0.788067
-0.781891
-0.77554
-0.769107
-0.762679
-0.756341
-0.750164
-0.74422
-0.738566
-0.733256
-0.728289
-0.723701
-0.71945
-0.715909
-0.712389
-0.183174
-0.204852
-0.226605
-0.248675
-0.270952
-0.293324
-0.315737
-0.338169
-0.360608
-0.383032
-0.405412
-0.427716
-0.449909
-0.47196
-0.493836
-0.515502
-0.536923
-0.558062
-0.578881
-0.599344
-0.61941
-0.639041
-0.658198
-0.676841
-0.694929
-0.712423
-0.729281
-0.745463
-0.76093
-0.775644
-0.789566
-0.802657
-0.814883
-0.826208
-0.836602
-0.846035
-0.854481
-0.861917
-0.868324
-0.873687
-0.877996
-0.88125
-0.883456
-0.884628
-0.884785
-0.883955
-0.882178
-0.879499
-0.875978
-0.871681
-0.866685
-0.861079
-0.854954
-0.848412
-0.841547
-0.834458
-0.827241
-0.819994
-0.812807
-0.805784
-0.799036
-0.792653
-0.786681
-0.781137
-0.776019
-0.77135
-0.767037
-0.763452
-0.759521
-0.212797
-0.235828
-0.258906
-0.282317
-0.305951
-0.329695
-0.353486
-0.377299
-0.40112
-0.424928
-0.448692
-0.472374
-0.495939
-0.519352
-0.542577
-0.565577
-0.588314
-0.610748
-0.632839
-0.654545
-0.675827
-0.69664
-0.716944
-0.736693
-0.755846
-0.774357
-0.792182
-0.809276
-0.825597
-0.841106
-0.855762
-0.869521
-0.882344
-0.894191
-0.905025
-0.914813
-0.923525
-0.931132
-0.937613
-0.94295
-0.947128
-0.950145
-0.952006
-0.952719
-0.952302
-0.950785
-0.948204
-0.944609
-0.94006
-0.934633
-0.928419
-0.921526
-0.914079
-0.906219
-0.898083
-0.889797
-0.881469
-0.8732
-0.865102
-0.857294
-0.849896
-0.843006
-0.83671
-0.831058
-0.826014
-0.821524
-0.81743
-0.81395
-0.810064
-0.246887
-0.271361
-0.295922
-0.32082
-0.345958
-0.371225
-0.396552
-0.421909
-0.447278
-0.472637
-0.497952
-0.523187
-0.548304
-0.573266
-0.598032
-0.622564
-0.646819
-0.670752
-0.69432
-0.717478
-0.740182
-0.762384
-0.78404
-0.805101
-0.82552
-0.845248
-0.864234
-0.882425
-0.899773
-0.916226
-0.931737
-0.946262
-0.959758
-0.972183
-0.983494
-0.993651
-1.00261
-1.01034
-1.0168
-1.02197
-1.02581
-1.02833
-1.02953
-1.02941
-1.028
-1.02535
-1.02149
-1.0165
-1.01044
-1.0034
-0.995496
-0.986834
-0.977559
-0.967842
-0.957888
-0.947925
-0.938152
-0.92871
-0.919695
-0.911162
-0.903217
-0.896025
-0.889684
-0.884182
-0.879423
-0.875305
-0.871682
-0.868546
-0.865414
-0.279184
-0.305246
-0.331268
-0.357651
-0.3843
-0.411085
-0.437932
-0.46481
-0.4917
-0.518578
-0.545411
-0.572155
-0.598772
-0.62522
-0.65146
-0.677451
-0.703146
-0.7285
-0.753469
-0.778006
-0.802062
-0.825591
-0.848539
-0.870857
-0.892493
-0.913395
-0.933511
-0.95279
-0.971183
-0.988631
-1.00508
-1.02046
-1.03474
-1.04786
-1.05979
-1.07047
-1.07987
-1.08793
-1.09461
-1.09988
-1.1037
-1.10608
-1.107
-1.10647
-1.10452
-1.10118
-1.09649
-1.09052
-1.08337
-1.07512
-1.0659
-1.05583
-1.04503
-1.03365
-1.02191
-1.01016
-0.998744
-0.987858
-0.977617
-0.968117
-0.959463
-0.951786
-0.94517
-0.939633
-0.93511
-0.931437
-0.928345
-0.925359
-0.922174
-0.327584
-0.355276
-0.383289
-0.411651
-0.440281
-0.469085
-0.49799
-0.52695
-0.555942
-0.584938
-0.613899
-0.64278
-0.671536
-0.700123
-0.728499
-0.756615
-0.784423
-0.811872
-0.838917
-0.865506
-0.891588
-0.917109
-0.942011
-0.966232
-0.989708
-1.01238
-1.03417
-1.05503
-1.0749
-1.09374
-1.11147
-1.12803
-1.14334
-1.15735
-1.16998
-1.18118
-1.1909
-1.19906
-1.20559
-1.21041
-1.2135
-1.21482
-1.21436
-1.21213
-1.20814
-1.20242
-1.19503
-1.18605
-1.17562
-1.1639
-1.15108
-1.1374
-1.12308
-1.10827
-1.09312
-1.07797
-1.06326
-1.0494
-1.03667
-1.02523
-1.0152
-1.00673
-0.999849
-0.994423
-0.990133
-0.986489
-0.982955
-0.978698
-0.973367
-0.347124
-0.376496
-0.405584
-0.435207
-0.465204
-0.495347
-0.525542
-0.555768
-0.586019
-0.616272
-0.646487
-0.676618
-0.706615
-0.73643
-0.766016
-0.79533
-0.824323
-0.852947
-0.881152
-0.908882
-0.936082
-0.962696
-0.988667
-1.01394
-1.03844
-1.0621
-1.08488
-1.1067
-1.12747
-1.14715
-1.16569
-1.18304
-1.19915
-1.21396
-1.22742
-1.23949
-1.25017
-1.25941
-1.26708
-1.27301
-1.27713
-1.27941
-1.27984
-1.27842
-1.27514
-1.27002
-1.26309
-1.25438
-1.24395
-1.23192
-1.21845
-1.20379
-1.18826
-1.17216
-1.15578
-1.13945
-1.12366
-1.10886
-1.09539
-1.08338
-1.07285
-1.06365
-1.05553
-1.04815
-1.04112
-1.03414
-1.02686
-1.01894
-1.00937
-0.438532
-0.470513
-0.503298
-0.536551
-0.570076
-0.603776
-0.637561
-0.671369
-0.705185
-0.739003
-0.772798
-0.806523
-0.840122
-0.873536
-0.906714
-0.939602
-0.972146
-1.00429
-1.03598
-1.06715
-1.09773
-1.12765
-1.15684
-1.18523
-1.21275
-1.23932
-1.26487
-1.28935
-1.31267
-1.33473
-1.35541
-1.37462
-1.39228
-1.40831
-1.4226
-1.435
-1.44538
-1.45362
-1.45976
-1.46388
-1.46596
-1.4659
-1.46362
-1.45903
-1.45202
-1.44254
-1.43054
-1.41603
-1.39908
-1.37981
-1.3584
-1.3351
-1.31025
-1.28425
-1.2576
-1.23086
-1.20463
-1.17949
-1.15596
-1.13443
-1.11514
-1.09816
-1.08339
-1.07055
-1.05925
-1.04909
-1.03956
-1.03048
-1.02265
0.0649984
0.067954
0.0712145
0.0747536
0.0785475
0.0826332
0.087072
0.0917802
0.0967573
0.101965
0.107476
0.113308
0.119271
0.125777
0.131918
0.138373
0.144534
0.151021
0.157284
0.1634
0.169669
0.175047
0.180189
0.184547
0.188401
0.19178
0.194143
0.19564
0.196489
0.196473
0.195136
0.192963
0.189998
0.186359
0.181478
0.175903
0.169809
0.163009
0.155579
0.14793
0.139887
0.131576
0.123291
0.115091
0.106494
0.0983475
0.0900311
0.0820875
0.0742076
0.0665783
0.0593056
0.0523009
0.0456593
0.0393505
0.033352
0.0273951
0.0218314
0.0164957
0.0114282
0.0653132
0.068444
0.071894
0.0756119
0.079625
0.0839387
0.0885701
0.093502
0.0987386
0.104274
0.110083
0.11617
0.122491
0.129036
0.135761
0.142454
0.149269
0.156013
0.162728
0.169156
0.175435
0.181358
0.186728
0.19147
0.195575
0.199047
0.201691
0.203321
0.204227
0.204164
0.202866
0.200738
0.197689
0.193671
0.188674
0.182851
0.176393
0.169325
0.161625
0.153506
0.145141
0.136515
0.12777
0.118885
0.110037
0.101305
0.0926733
0.0842805
0.0760695
0.0681028
0.0604589
0.0531279
0.0460752
0.0393563
0.0328884
0.0267399
0.0208985
0.0153644
0.0101095
0.0658659
0.0691702
0.0727758
0.0766799
0.0808973
0.0854346
0.0902932
0.0954742
0.100982
0.106808
0.112926
0.119307
0.125941
0.1328
0.139834
0.147003
0.154239
0.161423
0.168486
0.17531
0.181857
0.188092
0.193807
0.198892
0.203299
0.206947
0.209743
0.211571
0.212532
0.212452
0.211247
0.209083
0.205844
0.201585
0.196362
0.190295
0.18348
0.176043
0.168016
0.159539
0.150723
0.141611
0.132331
0.122995
0.113689
0.104493
0.0954266
0.086564
0.0779331
0.0695591
0.0614912
0.0537297
0.0462796
0.0391427
0.0323499
0.0258952
0.0197549
0.0139328
0.00839681
0.0663086
0.0697783
0.0735707
0.0776768
0.0821141
0.0868899
0.0920072
0.0974657
0.103263
0.109394
0.11584
0.122579
0.129589
0.136831
0.144246
0.151812
0.159426
0.16702
0.174484
0.181742
0.188702
0.195267
0.201316
0.206727
0.211428
0.215308
0.218283
0.220276
0.22131
0.221246
0.220067
0.217818
0.214415
0.20996
0.204492
0.198138
0.190973
0.183123
0.174672
0.165744
0.156428
0.14682
0.137055
0.127249
0.117451
0.10775
0.0981938
0.0888415
0.0797385
0.0709103
0.0623899
0.0541967
0.0463466
0.0388418
0.0316896
0.0248838
0.0184126
0.0122769
0.00644968
0.0664712
0.0701203
0.0741132
0.0784388
0.0831158
0.0881498
0.0935465
0.0993062
0.105425
0.111895
0.118703
0.125826
0.133235
0.14089
0.148735
0.156719
0.164761
0.172786
0.180695
0.188398
0.195789
0.202743
0.209153
0.214903
0.2199
0.22404
0.227226
0.229374
0.230494
0.230461
0.229265
0.22692
0.223365
0.218706
0.212979
0.206307
0.198775
0.190499
0.181587
0.172163
0.162338
0.15223
0.141958
0.131626
0.121301
0.111069
0.100995
0.0911369
0.0815394
0.0722362
0.0632574
0.054626
0.0463561
0.0384531
0.030917
0.0237459
0.0169313
0.0104708
0.0043347
0.0663856
0.070226
0.0744296
0.0789858
0.0839146
0.0892221
0.0949144
0.100993
0.107455
0.114291
0.121485
0.129015
0.136848
0.144944
0.153249
0.161699
0.170217
0.178719
0.187106
0.195272
0.203109
0.210492
0.217301
0.223418
0.228737
0.233155
0.23657
0.238885
0.2401
0.240105
0.23889
0.236447
0.232731
0.227847
0.221839
0.214825
0.206903
0.198189
0.188803
0.178874
0.168528
0.157887
0.147064
0.136166
0.12528
0.114492
0.103872
0.0934783
0.08336
0.0735552
0.0640941
0.0549986
0.046282
0.0379509
0.0300068
0.0224474
0.0152638
0.00845301
0.00198432
0.0660414
0.0700859
0.074515
0.0793177
0.0845151
0.0901139
0.0961214
0.10254
0.109365
0.11659
0.124196
0.132161
0.14045
0.149019
0.157813
0.166765
0.175795
0.18481
0.193706
0.202372
0.210689
0.218533
0.225776
0.232291
0.237963
0.242682
0.246341
0.24884
0.250163
0.250215
0.248983
0.246442
0.242557
0.237429
0.231121
0.223745
0.215408
0.206234
0.196352
0.185897
0.174998
0.163783
0.152372
0.140876
0.129395
0.118015
0.106812
0.0958481
0.0851747
0.074833
0.0648542
0.0552602
0.0460653
0.0372769
0.0288966
0.0209217
0.0133431
0.00615804
-0.000665067
0.065381
0.0696463
0.0743193
0.0793886
0.0848764
0.0907899
0.097137
0.10392
0.111137
0.118778
0.126826
0.135257
0.144034
0.153111
0.16243
0.171918
0.181493
0.191057
0.2005
0.209704
0.218541
0.226882
0.234593
0.241538
0.247592
0.252636
0.256557
0.259256
0.260701
0.260809
0.25956
0.25692
0.252859
0.247478
0.24085
0.233092
0.224315
0.214652
0.20424
0.19322
0.18173
0.169902
0.157864
0.145734
0.133618
0.121608
0.109783
0.0982104
0.0869447
0.0760292
0.0654967
0.0553703
0.045665
0.0363891
0.0275443
0.0191279
0.0111304
0.00354828
-0.00365144
0.0643499
0.0688523
0.0737872
0.0791431
0.0849432
0.0911958
0.097909
0.105086
0.112723
0.120813
0.129336
0.138268
0.14757
0.157193
0.167075
0.177142
0.187304
0.197458
0.207489
0.217271
0.22667
0.235548
0.243761
0.251168
0.257633
0.263027
0.267231
0.270146
0.271726
0.271896
0.270632
0.26789
0.263646
0.257999
0.251033
0.242868
0.233624
0.223439
0.212461
0.200836
0.188713
0.17623
0.163524
0.150719
0.137927
0.125245
0.112759
0.100538
0.0886407
0.0771133
0.0659903
0.0552966
0.0450484
0.0352542
0.0259158
0.01703
0.00858669
0.000581576
-0.00701977
0.0628889
0.0676452
0.0728602
0.0785224
0.0846568
0.0912724
0.0983783
0.105978
0.114069
0.122641
0.131677
0.141149
0.151017
0.161229
0.171721
0.182411
0.193207
0.203998
0.214663
0.225068
0.235072
0.244529
0.253285
0.261189
0.268095
0.273866
0.278376
0.281524
0.283252
0.283491
0.282212
0.279364
0.274927
0.268998
0.261673
0.253075
0.243332
0.232592
0.221008
0.208739
0.19594
0.18276
0.169342
0.155817
0.142304
0.128907
0.115715
0.102804
0.0902337
0.078054
0.0663019
0.0550036
0.0441761
0.0338284
0.0239625
0.0145752
0.00565523
-0.00280202
-0.0108325
0.0609172
0.0659459
0.0714619
0.0774537
0.0839479
0.0909546
0.0984836
0.106539
0.115118
0.124212
0.133801
0.143855
0.154334
0.165182
0.17633
0.187694
0.199173
0.210652
0.222001
0.23308
0.243739
0.25382
0.263161
0.271601
0.278983
0.28516
0.290002
0.293401
0.295292
0.295608
0.294315
0.291355
0.286713
0.280485
0.272776
0.263716
0.253441
0.242107
0.229879
0.216922
0.203402
0.189478
0.1753
0.161007
0.146725
0.132564
0.11862
0.104971
0.0916824
0.0788068
0.0663828
0.0544383
0.0429915
0.0320524
0.0216227
0.0116987
0.00226894
-0.00667198
-0.0151612
0.0583521
0.0636743
0.0695151
0.0758627
0.0827453
0.0901738
0.098159
0.106705
0.115811
0.125466
0.13565
0.146333
0.15747
0.169004
0.180861
0.192951
0.205169
0.217391
0.229481
0.241288
0.252654
0.26341
0.273383
0.282401
0.290296
0.296914
0.302114
0.305786
0.307854
0.308255
0.306948
0.303872
0.299012
0.292464
0.284346
0.274792
0.263949
0.251982
0.239064
0.225373
0.211083
0.196364
0.181375
0.166262
0.151157
0.13618
0.121429
0.106991
0.0929349
0.0793149
0.0661727
0.0535376
0.0414289
0.0298571
0.0188247
0.00832726
-0.0016473
-0.011105
-0.0200847
0.0550978
0.0607354
0.0669247
0.0736546
0.0809546
0.088837
0.0973136
0.10639
0.116063
0.126324
0.137152
0.148514
0.160364
0.17264
0.185264
0.198141
0.211157
0.224182
0.237071
0.249666
0.261796
0.27328
0.283936
0.293578
0.302027
0.30912
0.31471
0.318677
0.32094
0.321435
0.320116
0.316917
0.311825
0.304938
0.296381
0.2863
0.274848
0.262203
0.248547
0.23407
0.218956
0.203386
0.187527
0.171536
0.155553
0.139703
0.124091
0.108809
0.0939302
0.0795136
0.0656026
0.0522281
0.0394106
0.0271616
0.0154831
0.00437074
-0.00618807
-0.0162004
-0.0257066
0.0510273
0.0570028
0.0635667
0.0707084
0.0784591
0.0868325
0.0958412
0.105491
0.115781
0.1267
0.138226
0.150325
0.162947
0.176026
0.189479
0.203204
0.217083
0.230977
0.244732
0.258178
0.271134
0.283406
0.294798
0.305113
0.314162
0.321769
0.32778
0.332068
0.334543
0.335142
0.333814
0.330486
0.325146
0.317895
0.30887
0.298223
0.286121
0.272748
0.258302
0.242982
0.226985
0.210502
0.193711
0.176778
0.159854
0.143069
0.126536
0.11035
0.0945916
0.0793223
0.0645888
0.0504235
0.0368479
0.023874
0.0115037
-0.000267675
-0.0114537
-0.0220622
-0.0321345
0.0460015
0.0523412
0.0593098
0.0668975
0.0751369
0.084043
0.0936292
0.103902
0.11486
0.126492
0.138774
0.151669
0.165126
0.179072
0.193422
0.208068
0.222881
0.237717
0.25241
0.266778
0.280626
0.293749
0.305936
0.316978
0.326674
0.334838
0.341305
0.34594
0.348649
0.349362
0.348025
0.344561
0.338958
0.331318
0.32179
0.310537
0.297735
0.283582
0.268287
0.252063
0.235117
0.217654
0.199863
0.18192
0.163985
0.146199
0.128679
0.111526
0.0948251
0.078641
0.0630233
0.0480087
0.0336208
0.0198713
0.00676136
-0.00571514
-0.0175724
-0.0288193
-0.0394983
0.0398692
0.0466021
0.0540074
0.0620769
0.070844
0.0803253
0.0905354
0.101481
0.113161
0.125564
0.138664
0.152422
0.166783
0.181672
0.196996
0.21264
0.22847
0.244327
0.260035
0.275399
0.290212
0.304254
0.317301
0.32913
0.339527
0.348293
0.355254
0.360267
0.363228
0.364068
0.362724
0.359117
0.353231
0.345174
0.335105
0.3232
0.309648
0.294657
0.27845
0.261253
0.243289
0.224772
0.205905
0.186877
0.167857
0.148994
0.130414
0.112223
0.0945114
0.0773473
0.0607841
0.0448595
0.029598
0.0150118
0.00110269
-0.0121349
-0.0247155
-0.0366493
-0.0479797
0.0324178
0.0395723
0.0474474
0.0560365
0.0653743
0.0754785
0.0863649
0.098041
0.110506
0.123746
0.137736
0.152434
0.16778
0.183695
0.200079
0.216809
0.23374
0.250703
0.267511
0.283955
0.299812
0.314849
0.328826
0.341506
0.35266
0.362077
0.369573
0.374996
0.378234
0.379212
0.377863
0.374103
0.367914
0.359409
0.348758
0.336152
0.321791
0.305898
0.28871
0.270466
0.251407
0.231756
0.211733
0.191538
0.171351
0.151331
0.131612
0.112305
0.0935059
0.0752891
0.0577104
0.0408087
0.0246089
0.00912392
-0.00564373
-0.0196992
-0.0330579
-0.0457323
-0.0577664
0.0234108
0.0310188