/*--------------------------------*- C++ -*----------------------------------*\
| =========                 |                                                 |
| \\      /  F ield         | OpenFOAM: The Open Source CFD Toolbox           |
|  \\    /   O peration     | Version:  2312                                  |
|   \\  /    A nd           | Website:  www.openfoam.com                      |
|    \\/     M anipulation  |                                                 |
\*---------------------------------------------------------------------------*/
FoamFile
{
    version     2.0;
    format      ascii;
    arch        "LSB;label=32;scalar=64";
    class       surfaceScalarField;
    location    "600";
    object      phi;
}
// * * * * * * * * * * * * * * * * * * * * * * * * * * * * * * * * * * * * * //

dimensions      [0 3 -1 0 0 0 0];

oriented        oriented;

internalField   nonuniform List<scalar> 
116611
(
0.0291442
0.0115854
-0.0287376
-0.011992
0.0295485
0.011512
-0.0119163
0.0299463
0.0114305
-0.0118282
0.0303391
0.0113405
-0.0117333
0.0307306
0.0112444
-0.011636
0.031121
0.0111396
-0.01153
0.0315038
0.011028
-0.0114108
0.0318872
0.010909
-0.0112924
0.0322575
0.0107799
-0.0111502
0.0326237
0.0106417
-0.0110079
0.0329834
0.0104937
-0.0108533
0.0333382
0.0103368
-0.0106916
0.0336835
0.01017
-0.0105153
0.0340181
0.00999228
-0.0103269
0.0343413
0.00980354
-0.0101267
0.0346554
0.00960496
-0.00991913
0.0349623
0.00939343
-0.00970029
0.0352618
0.00917453
-0.00947401
0.0355485
0.00893992
-0.00922669
0.0358242
0.00869714
-0.00897283
0.0360897
0.00843932
-0.00870481
0.0363383
0.00817013
-0.0084187
0.036572
0.00788682
-0.00812056
0.0367938
0.00759271
-0.0078145
0.0370018
0.00728547
-0.00749345
0.0372013
0.00696593
-0.00716544
0.0373835
0.00663054
-0.00681274
0.0375495
0.00628383
-0.00644988
0.0377104
0.00592563
-0.00608652
0.0378486
0.00555407
-0.00569228
0.0379729
0.00516984
-0.00529406
0.038086
0.00476827
-0.00488139
0.0381773
0.00435243
-0.00444374
0.0382558
0.00392659
-0.00400512
0.0383167
0.00348464
-0.00354555
0.0383575
0.00303131
-0.0030721
0.0383923
0.00256543
-0.00260021
0.0383979
0.00208369
-0.00208932
0.0383905
0.00158921
-0.00158172
0.0383591
0.00107794
-0.0010466
0.0383102
0.000557508
-0.00050859
0.0382523
2.47467e-05
3.3104e-05
0.0381625
-0.000526472
0.00061634
0.0380582
-0.00108736
0.00119162
0.0379275
-0.00166209
0.00179281
0.0377858
-0.00224512
0.00238684
0.0376181
-0.00284331
0.003011
0.0374235
-0.0034519
0.00364654
0.0372136
-0.00406553
0.0042754
0.0369847
-0.00468811
0.004917
0.0367309
-0.00532079
0.00557456
0.0364581
-0.00595848
0.00623125
0.0361647
-0.00660296
0.00689644
0.0358455
-0.00725479
0.00757395
0.0354903
-0.00791087
0.00826606
0.035132
-0.00855907
0.00891737
0.0347322
-0.00921457
0.00961434
0.0343189
-0.00986238
0.0102758
0.033883
-0.0105041
0.01094
0.033427
-0.0111366
0.0115926
0.0329385
-0.0117684
0.0122569
0.0324317
-0.0123864
0.0128932
0.0319064
-0.0129819
0.0135072
0.0313532
-0.0135636
0.0141169
0.0307701
-0.0141254
0.0147085
0.0301916
-0.0146495
0.015228
0.0295971
-0.0151486
0.0157432
0.028971
-0.0156293
0.0162554
-0.016056
0.0282819
0.0167451
0.0287978
0.0111771
-0.0283895
0.0292017
0.0111081
0.0296008
0.0110314
0.0299943
0.010947
0.0303845
0.0108542
0.0307698
0.0107543
0.0311512
0.0106466
0.0315293
0.010531
0.0319016
0.0104076
0.0322681
0.0102753
0.0326279
0.0101339
0.0329813
0.00998329
0.0333282
0.00982317
0.033667
0.00965343
0.0339961
0.00947444
0.0343167
0.00928444
0.0346261
0.009084
0.0349282
0.00887247
0.0352181
0.00864998
0.0354995
0.00841573
0.0357689
0.00816989
0.0360266
0.00791244
0.0362705
0.00764289
0.0365018
0.00736144
0.0367198
0.00706749
0.0369254
0.00676032
0.0371151
0.0064408
0.0372905
0.0061085
0.0374528
0.00576334
0.0376002
0.0054066
0.0377343
0.0050358
0.0378521
0.00465043
0.0379522
0.00425234
0.0380373
0.00384144
0.0381047
0.00341733
0.038156
0.00297998
0.0381918
0.00252965
0.0382092
0.0020663
0.0382093
0.00158905
0.0381889
0.00109837
0.038151
0.000595377
0.0380951
8.0658e-05
0.0380169
-0.000448234
0.0379195
-0.000989948
0.0378008
-0.00154344
0.0376634
-0.00210768
0.0375031
-0.00268301
0.0373199
-0.00326871
0.0371167
-0.00386234
0.0368924
-0.00446378
0.0366451
-0.00507353
0.0363766
-0.00568994
0.036086
-0.00631237
0.0357712
-0.00694004
0.0354312
-0.00757085
0.0350724
-0.0082003
0.0346874
-0.00882957
0.0342809
-0.00945581
0.0338528
-0.010076
0.0334054
-0.0106892
0.032933
-0.011296
0.0324376
-0.0118911
0.0319248
-0.012469
0.0313908
-0.0130297
0.0308361
-0.0135707
0.03027
-0.0140834
0.0296886
-0.0145671
0.0290863
-0.0150271
-0.0154301
0.0284605
0.028464
0.010771
-0.0280579
0.0288671
0.010705
0.0292667
0.0106318
0.029662
0.0105517
0.0300521
0.010464
0.0304376
0.0103689
0.0308181
0.010266
0.0311939
0.0101552
0.0315649
0.0100365
0.0319305
0.00990967
0.03229
0.00977435
0.032643
0.00963027
0.0329891
0.00947711
0.0333278
0.00931469
0.0336593
0.00914297
0.0339822
0.00896152
0.0342962
0.00877004
0.0346006
0.00856808
0.0348951
0.00835544
0.0351791
0.00813173
0.0354521
0.00789686
0.035714
0.00765063
0.035964
0.00739289
0.0362019
0.00712351
0.0364271
0.00684228
0.0366386
0.00654887
0.0368362
0.00624316
0.0370197
0.00592504
0.0371885
0.00559448
0.0373437
0.00525144
0.037484
0.00489545
0.0376081
0.00452635
0.0377161
0.00414433
0.037808
0.00374955
0.0378833
0.003342
0.0379418
0.00292155
0.0379831
0.00248827
0.0380073
0.00204209
0.0380135
0.00158292
0.0380008
0.00111105
0.0379693
0.000626841
0.037919
0.000131008
0.0378488
-0.000378026
0.0377584
-0.000899551
0.0376475
-0.00143252
0.037516
-0.00197621
0.0373633
-0.00253034
0.0371889
-0.00309426
0.0369932
-0.0036667
0.0367765
-0.00424703
0.036538
-0.00483508
0.036278
-0.00542989
0.035996
-0.00603038
0.0356913
-0.0066354
0.0353635
-0.00724298
0.0350139
-0.00785077
0.0346419
-0.00845751
0.0342479
-0.00906187
0.0338332
-0.00966128
0.0333982
-0.0102542
0.0329415
-0.0108393
0.0324639
-0.0114135
0.0319678
-0.011973
0.0314532
-0.0125151
0.0309202
-0.0130377
0.0303724
-0.0135356
0.0298103
-0.014005
0.0292314
-0.0144481
-0.0148369
0.0286381
0.0281515
0.0103681
-0.0277486
0.0285522
0.0103043
0.0289502
0.0102338
0.0293449
0.010157
0.0297355
0.0100735
0.0301215
0.00998291
0.0305025
0.00988504
0.0308782
0.00977954
0.0312485
0.00966622
0.0316132
0.00954494
0.031972
0.00941552
0.0323246
0.00927773
0.0326704
0.00913132
0.033009
0.00897604
0.0333403
0.00881166
0.0336638
0.00863804
0.033979
0.00845486
0.0342852
0.00826184
0.034582
0.00805867
0.0348686
0.00784507
0.0351447
0.00762078
0.0354098
0.00738556
0.0356634
0.00713926
0.0359052
0.00688171
0.0361347
0.00661276
0.0363514
0.00633223
0.0365547
0.00603982
0.0367443
0.00573544
0.0369197
0.00541905
0.0370808
0.00509043
0.0372268
0.0047494
0.0373573
0.00439586
0.0374719
0.00402972
0.0375704
0.00365109
0.0376524
0.00325998
0.0377175
0.00285639
0.0377656
0.00244025
0.0377961
0.00201157
0.0378085
0.00157051
0.0378024
0.00111716
0.0377775
0.000651751
0.0377336
0.000174878
0.0376701
-0.000314487
0.0375864
-0.000815892
0.0374825
-0.00132861
0.0373582
-0.00185193
0.0372134
-0.00238549
0.0370477
-0.00292858
0.0368613
-0.00348029
0.0366542
-0.00403992
0.0364259
-0.0046068
0.0361761
-0.00518008
0.0359044
-0.0057587
0.0356105
-0.00634148
0.0352943
-0.00692681
0.0349566
-0.00751306
0.0345976
-0.00809851
0.0342175
-0.0086818
0.0338171
-0.00926082
0.0333967
-0.00983381
0.0329564
-0.0103989
0.0324965
-0.0109537
0.0320184
-0.0114948
0.0315229
-0.0120196
0.0310107
-0.0125255
0.0304834
-0.0130083
0.0299425
-0.0134641
0.0293873
-0.0138929
-0.0142715
0.028822
0.0278598
0.00996621
-0.0274579
0.0282588
0.00990529
0.0286549
0.00983772
0.029048
0.00976395
0.0294375
0.00968391
0.0298231
0.00959735
0.0302041
0.00950398
0.0305801
0.00940352
0.0309507
0.00929565
0.0313155
0.00918014
0.0316743
0.00905677
0.0320267
0.00892531
0.0323724
0.00878559
0.0327111
0.00863737
0.0330423
0.00848042
0.0333658
0.00831454
0.0336812
0.00813949
0.033988
0.00795504
0.0342857
0.00776094
0.0345739
0.00755693
0.0348519
0.00734276
0.0351192
0.0071182
0.0353755
0.00688304
0.0356201
0.00663708
0.0358527
0.00638012
0.0360729
0.00611202
0.0362802
0.00583255
0.0364741
0.00554152
0.0366543
0.0052389
0.0368202
0.00492454
0.0369713
0.00459823
0.0371073
0.00425985
0.0372277
0.00390933
0.0373321
0.00354674
0.0374201
0.00317198
0.0374914
0.0027851
0.0375456
0.00238607
0.0375823
0.00197486
0.0376011
0.00155166
0.0376017
0.00111654
0.0375838
0.000669699
0.037547
0.000211688
0.0374908
-0.000258272
0.0374149
-0.000740009
0.0373191
-0.00123286
0.0372034
-0.00173621
0.0370675
-0.00224958
0.0369112
-0.00277226
0.0367343
-0.00330341
0.0365367
-0.0038423
0.0363181
-0.00438815
0.0360782
-0.0049402
0.0358169
-0.00549745
0.0355343
-0.00605883
0.0352303
-0.00662288
0.0349055
-0.0071882
0.0345601
-0.00775312
0.0341945
-0.00831616
0.0338091
-0.0088755
0.0334045
-0.00942921
0.032981
-0.00997544
0.0325391
-0.0105117
0.0320796
-0.0110353
0.0316037
-0.0115437
0.0311118
-0.0120336
0.0306054
-0.0125019
0.030086
-0.0129447
0.0295547
-0.0133616
-0.0137338
0.029017
0.0275835
0.00956273
-0.02718
0.0279832
0.00950559
0.0283792
0.00944171
0.0287715
0.0093716
0.0291602
0.00929529
0.0295449
0.00921267
0.0299253
0.00912357
0.030301
0.00902777
0.0306717
0.00892502
0.0310367
0.00881508
0.0313958
0.00869767
0.0317486
0.00857254
0.0320947
0.00843949
0.0324337
0.00829831
0.0327654
0.00814876
0.0330893
0.00799065
0.0334051
0.00782372
0.0337123
0.00764777
0.0340107
0.00746261
0.0342996
0.00726797
0.0345788
0.00706362
0.0348476
0.00684936
0.0351057
0.006625
0.0353524
0.0063903
0.0355875
0.00614506
0.0358104
0.00588911
0.0360207
0.00562229
0.0362178
0.00534437
0.0364015
0.00505524
0.0365712
0.00475484
0.0367264
0.00444297
0.0368668
0.00411946
0.0369919
0.00378425
0.0371012
0.00343739
0.0371944
0.00307877
0.0372712
0.00270837
0.037331
0.00232622
0.0373736
0.00193225
0.0373987
0.00152663
0.0374058
0.0011094
0.0373948
0.000680721
0.0373653
0.000241116
0.0373171
-0.000209987
0.0372496
-0.000672594
0.0371628
-0.00114597
0.0370561
-0.00162951
0.0369292
-0.0021227
0.0367819
-0.00262496
0.036614
-0.00313558
0.0364256
-0.0036539
0.0362167
-0.00417917
0.0359871
-0.00471064
0.0357369
-0.00524728
0.0354662
-0.00578809
0.035175
-0.0063317
0.0348637
-0.00687685
0.0345325
-0.00742195
0.0341818
-0.00796551
0.0338122
-0.00850583
0.0334239
-0.00904095
0.0330176
-0.00956911
0.0325936
-0.0100878
0.0321529
-0.0105946
0.0316964
-0.0110871
0.0312246
-0.0115618
0.0307391
-0.0120164
0.0302407
-0.0124464
0.0297316
-0.0128525
-0.0132183
0.0292161
0.0273188
0.00915679
-0.0269129
0.0277208
0.00910363
0.0281186
0.0090439
0.0285121
0.00897804
0.0289014
0.00890604
0.0292862
0.00882782
0.0296665
0.00874326
0.0300421
0.0086522
0.0304126
0.00855448
0.0307778
0.00844991
0.0311372
0.00833828
0.0314904
0.00821935
0.031837
0.00809289
0.0321766
0.00795867
0.0325089
0.00781647
0.0328335
0.00766606
0.03315
0.00750724
0.033458
0.00733975
0.0337572
0.00716344
0.0340471
0.00697807
0.0343273
0.0067834
0.0345974
0.00657923
0.034857
0.0063654
0.0351056
0.00614176
0.0353426
0.00590803
0.0355677
0.00566401
0.0357804
0.00540961
0.0359802
0.00514455
0.0361668
0.00486869
0.0363396
0.00458199
0.0364983
0.00428425
0.0366424
0.00397534
0.0367716
0.00365515
0.0368853
0.00332369
0.0369832
0.00298082
0.037065
0.00262656
0.0371304
0.00226087
0.0371788
0.00188376
0.0372101
0.00149538
0.0372238
0.00109574
0.0372195
0.000684989
0.037197
0.000263562
0.037156
-0.000168929
0.037096
-0.000612624
0.0370168
-0.00106677
0.0369181
-0.0015308
0.0367996
-0.00200421
0.0366612
-0.0024865
0.0365027
-0.00297711
0.0363242
-0.00347543
0.0361257
-0.0039807
0.0359073
-0.00449217
0.0356688
-0.00500883
0.0354105
-0.00552975
0.0351324
-0.00605362
0.0348349
-0.0065793
0.0345181
-0.0071052
0.0341826
-0.00762998
0.0338286
-0.00815189
0.0334568
-0.00866911
0.0330676
-0.0091799
0.0326615
-0.00968172
0.0322395
-0.0101726
0.0318021
-0.0106498
0.0313503
-0.01111
0.0308854
-0.0115515
0.0304081
-0.0119691
0.0299202
-0.0123645
-0.0127208
0.0294226
0.0270665
0.00874902
-0.0266587
0.0274706
0.00869953
0.0278706
0.00864381
0.0282664
0.00858226
0.0286576
0.00851483
0.0290441
0.00844137
0.0294256
0.00836173
0.0298021
0.00827576
0.0301732
0.00818332
0.0305389
0.00808427
0.0308987
0.00797844
0.0312524
0.00786564
0.0315996
0.00774567
0.03194
0.00761832
0.0322731
0.00748334
0.0325986
0.00734052
0.0329162
0.00718969
0.0332253
0.00703061
0.0335257
0.00686309
0.0338168
0.00668693
0.0340983
0.0065019
0.0343697
0.00630781
0.0346307
0.00610444
0.0348808
0.00589167
0.0351196
0.00566924
0.0353467
0.00543693
0.0355616
0.00519466
0.035764
0.00494215
0.0359534
0.00467929
0.0361294
0.00440603
0.0362915
0.00412217
0.0364392
0.00382757
0.0365723
0.00352209
0.0366903
0.00320572
0.0367928
0.00287827
0.0368795
0.00253982
0.0369501
0.00219034
0.037004
0.00182982
0.037041
0.0014584
0.0370606
0.00107614
0.0370625
0.000683122
0.0370464
0.000279675
0.0370119
-0.000134426
0.0369587
-0.000559483
0.0368867
-0.000994741
0.0367956
-0.00143971
0.0366853
-0.00189393
0.0365558
-0.00235693
0.0364068
-0.00282815
0.0362384
-0.00330704
0.0360506
-0.00379284
0.0358432
-0.00428486
0.0356165
-0.00478212
0.0353705
-0.00528377
0.0351054
-0.00578851
0.0348215
-0.00629534
0.034519
-0.00680268
0.0341983
-0.00730933
0.0338599
-0.00781347
0.0335043
-0.0083135
0.033132
-0.00880759
0.0327436
-0.00929331
0.0323399
-0.00976894
0.0319215
-0.0102314
0.0314897
-0.0106782
0.0310453
-0.0111071
0.0305892
-0.0115129
0.0301223
-0.0118977
-0.0122441
0.0296457
0.0268292
0.00834038
-0.0264206
0.0272346
0.00829416
0.0276363
0.00824209
0.0280341
0.00818453
0.0284274
0.00812145
0.0288161
0.00805271
0.0291998
0.00797807
0.0295781
0.00789737
0.029951
0.00781046
0.0303181
0.00771717
0.0306792
0.00761732
0.0310341
0.00751075
0.0313825
0.00739731
0.031724
0.00727683
0.0320582
0.00714907
0.0323849
0.00701383
0.0327037
0.00687093
0.0330141
0.00672023
0.0333157
0.00656147
0.0336082
0.00639444
0.0338911
0.00621894
0.0341642
0.0060348
0.0344268
0.00584179
0.0346787
0.00563974
0.0349195
0.00542844
0.0351488
0.00520769
0.0353661
0.00497737
0.035571
0.00473723
0.0357631
0.00448716
0.0359421
0.00422707
0.0361075
0.00395678
0.0362589
0.00367612
0.036396
0.00338503
0.0365182
0.00308348
0.0366252
0.00277126
0.0367166
0.00244845
0.0367919
0.00211504
0.0368507
0.00177098
0.0368928
0.00141634
0.0369177
0.00105119
0.0369253
0.000675567
0.0369152
0.000289736
0.0368872
-0.000106411
0.036841
-0.000513255
0.0367763
-0.000930078
0.0366931
-0.00135644
0.036591
-0.00179192
0.0364702
-0.00223608
0.0363304
-0.00268839
0.0361717
-0.00314833
0.0359941
-0.00361519
0.0357975
-0.0040883
0.0355821
-0.00456674
0.0353481
-0.00504971
0.0350955
-0.00553596
0.0348248
-0.0060246
0.0345361
-0.00651403
0.03423
-0.00700322
0.0339068
-0.00749027
0.0335671
-0.00797384
0.0332114
-0.00845187
0.0328404
-0.00892231
0.0324548
-0.00938332
0.0320552
-0.00983181
0.0316431
-0.010266
0.0312188
-0.0106828
0.0307844
-0.0110785
0.0303399
-0.0114532
-0.0117948
0.0298906
0.0266098
0.00793137
-0.0262008
0.0270159
0.0078881
0.0274186
0.00783937
0.0278176
0.00778553
0.0282125
0.0077265
0.028603
0.00766221
0.0289887
0.00759239
0.0293693
0.00751684
0.0297443
0.00743539
0.0301136
0.00734788
0.0304768
0.00725411
0.0308336
0.00715394
0.0311838
0.00704717
0.0315269
0.00693368
0.0318628
0.00681322
0.032191
0.00668562
0.0325112
0.00655067
0.0328232
0.00640823
0.0331266
0.00625813
0.0334209
0.00610011
0.0337058
0.00593405
0.0339808
0.00575976
0.0342457
0.00557696
0.0344999
0.00538553
0.0347431
0.00518521
0.034975
0.00497586
0.035195
0.00475736
0.0354028
0.00452941
0.035598
0.00429195
0.0357802
0.00404485
0.035949
0.00378798
0.036104
0.00352117
0.0362446
0.00324435
0.0363706
0.00295749
0.0364815
0.0026604
0.0365769
0.00235306
0.0366564
0.00203548
0.0367198
0.0017076
0.0367667
0.00136943
0.0367969
0.00102104
0.03681
0.00066246
0.0368058
0.000293908
0.0367841
-8.46589e-05
0.0367445
-0.000473687
0.0366869
-0.000872486
0.0366111
-0.00128067
0.036517
-0.00169783
0.0364046
-0.0021236
0.0362736
-0.00255747
0.0361243
-0.00299895
0.0359565
-0.00344737
0.0357703
-0.00390213
0.0355658
-0.00436231
0.0353433
-0.0048272
0.035103
-0.0052956
0.0348451
-0.00576669
0.0345699
-0.0062389
0.034278
-0.00671131
0.0339698
-0.00718199
0.0336457
-0.00764979
0.0333063
-0.00811249
0.0329524
-0.00856841
0.0325845
-0.00901539
0.0322035
-0.00945077
0.0318103
-0.00987284
0.0314055
-0.0102781
0.0309915
-0.0106644
0.0305685
-0.0110302
-0.0113703
0.030144
0.0264103
0.00752202
-0.0260009
0.0268168
0.00748164
0.0272201
0.00743606
0.0276199
0.00738574
0.0280158
0.00733053
0.0284076
0.00727039
0.0287949
0.00720517
0.0291771
0.00713459
0.0295541
0.00705843
0.0299254
0.00697655
0.0302908
0.00688873
0.0306498
0.00679491
0.0310022
0.00669482
0.0313476
0.00658831
0.0316856
0.00647516
0.0320161
0.00635515
0.0323386
0.00622816
0.0326528
0.00609403
0.0329584
0.00595254
0.033255
0.0058035
0.0335423
0.0056468
0.0338197
0.00548226
0.0340871
0.00530959
0.034344
0.00512865
0.03459
0.00493925
0.0348246
0.00474121
0.0350475
0.00453443
0.0352583
0.00431864
0.0354565
0.00409372
0.0356418
0.00385957
0.0358137
0.00361605
0.0359719
0.00336301
0.0361159
0.00310036
0.0362454
0.002828
0.03636
0.00254581
0.0364593
0.00225371
0.0365431
0.00195167
0.0366111
0.00163966
0.0366628
0.00131767
0.0366981
0.000985746
0.0367167
0.000643907
0.0367183
0.000292329
0.0367026
-6.90003e-05
0.0366695
-0.000440567
0.0366187
-0.000821722
0.0365502
-0.00121211
0.0364637
-0.00161138
0.0363593
-0.00201919
0.0362369
-0.00243506
0.0360965
-0.00285856
0.0359382
-0.00328905
0.035762
-0.00372598
0.0355682
-0.00416848
0.0353569
-0.0046159
0.0351284
-0.00506708
0.0348829
-0.00552127
0.034621
-0.00597695
0.0343429
-0.00643327
0.0340493
-0.00688831
0.0337405
-0.00734101
0.0334171
-0.00778909
0.0330798
-0.00823113
0.0327291
-0.00866469
0.0323659
-0.00908762
0.0319909
-0.00949778
0.0316047
-0.00989191
0.0312084
-0.0102682
0.0308023
-0.0106241
-0.0109607
0.0303927
0.026231
0.00711213
-0.0258211
0.026638
0.00707466
0.0270419
0.00703218
0.0274423
0.00698526
0.0278391
0.00693382
0.0282317
0.00687771
0.0286201
0.00681676
0.0290038
0.00675091
0.0293824
0.00667985
0.0297556
0.00660338
0.030123
0.00652128
0.0304844
0.00643355
0.0308392
0.00634003
0.0311871
0.00624039
0.0315277
0.00613449
0.0318608
0.00602206
0.032186
0.005903
0.0325028
0.00577721
0.032811
0.0056444
0.0331101
0.00550433
0.0333999
0.00535699
0.03368
0.00520217
0.03395
0.00503962
0.0342095
0.00486916
0.0344581
0.00469064
0.0346954
0.00450387
0.0349211
0.00430873
0.0351348
0.00410501
0.0353359
0.00389256
0.0355243
0.00367124
0.0356994
0.00344092
0.0358609
0.00320148
0.0360085
0.00295278
0.0361418
0.00269472
0.0362604
0.00242719
0.036364
0.00215011
0.0364523
0.00186341
0.0365249
0.00156706
0.0365815
0.00126102
0.0366219
0.000945328
0.0366459
0.000619975
0.0366531
0.000285105
0.0366434
-5.92888e-05
0.0366165
-0.000413711
0.0365723
-0.000777558
0.0365108
-0.00115051
0.0364316
-0.00153227
0.036335
-0.00192251
0.0362207
-0.00232082
0.036089
-0.0027268
0.0359398
-0.00313985
0.0357733
-0.00355948
0.0355897
-0.00398487
0.0353892
-0.00441543
0.0351721
-0.00485003
0.0349389
-0.00528799
0.0346897
-0.00572782
0.0344252
-0.0061687
0.0341456
-0.00660877
0.0338516
-0.00704697
0.0335436
-0.00748108
0.0332222
-0.00790975
0.032888
-0.00833047
0.0325417
-0.00874134
0.0321838
-0.00913987
0.0318151
-0.00952318
0.0314357
-0.00988884
0.0310449
-0.0102333
-0.0105524
0.0306367
0.0260725
0.00670142
-0.0256618
0.0264804
0.00666684
0.0268851
0.00662744
0.0272865
0.00658387
0.0276842
0.00653607
0.028078
0.00648398
0.0284674
0.00642733
0.0288523
0.00636604
0.0292322
0.00629998
0.0296067
0.00622887
0.0299755
0.00615247
0.0303384
0.00607065
0.030695
0.00598342
0.0310449
0.00589052
0.0313876
0.00579172
0.0317229
0.00568674
0.0320505
0.00557545
0.0323699
0.00545776
0.0326809
0.00533343
0.032983
0.00520224
0.0332758
0.00506415
0.033559
0.00491899
0.0338321
0.00476652
0.0340947
0.00460654
0.0343465
0.00443888
0.034587
0.00426335
0.0348159
0.0040798
0.0350329
0.00388807
0.0352374
0.00368799
0.0354293
0.00347941
0.035608
0.00326221
0.0357732
0.00303623
0.0359247
0.00280136
0.0360619
0.00255747
0.0361847
0.00230446
0.0362925
0.00204223
0.0363853
0.0017707
0.0364625
0.00148982
0.036524
0.00119955
0.0365694
0.000899884
0.0365986
0.0005908
0.0366113
0.000272408
0.0366073
-5.53157e-05
0.0365865
-0.000392872
0.0365486
-0.000739711
0.0364937
-0.00109556
0.0364215
-0.00146015
0.0363322
-0.00183321
0.0362258
-0.00221438
0.0361023
-0.00260329
0.0359619
-0.00299941
0.0358047
-0.00340228
0.0356309
-0.00381114
0.0354409
-0.00422543
0.035235
-0.00464407
0.0350134
-0.0050664
0.0347765
-0.00549098
0.0345248
-0.00591699
0.0342587
-0.00634264
0.0339786
-0.00676683
0.0336849
-0.00718746
0.0333783
-0.00760314
0.0330592
-0.0080114
0.0327284
-0.00841045
0.0323861
-0.00879759
0.0320332
-0.00917029
0.0316703
-0.00952591
0.031298
-0.009861
-0.0101793
0.0309249
0.0259355
0.0062896
-0.0255237
0.0263444
0.00625795
0.0267501
0.00622173
0.0271524
0.00618158
0.0275511
0.00613741
0.0279458
0.0060892
0.0283364
0.00603675
0.0287225
0.00597993
0.0291038
0.00591868
0.02948
0.00585273
0.0298505
0.0057819
0.0302152
0.00570598
0.0305737
0.00562491
0.0309257
0.00553854
0.0312707
0.00544667
0.0316085
0.00534903
0.0319385
0.00524543
0.0322605
0.00513577
0.0325741
0.00501984
0.0328788
0.00489746
0.0331744
0.00476853
0.0334605
0.0046329
0.0337367
0.00449036
0.0340025
0.00434073
0.0342576
0.00418381
0.0345015
0.00401943
0.0347339
0.0038474
0.0349544
0.00366758
0.0351626
0.00347978
0.0353582
0.00328386
0.0355407
0.00307968
0.0357098
0.00286708
0.0358652
0.00264594
0.0360066
0.00241613
0.0361335
0.00217753
0.0362457
0.00193003
0.0363428
0.00167355
0.0364246
0.00140801
0.0364908
0.00113335
0.0365412
0.000849541
0.0365755
0.00055654
0.0365934
0.000254427
0.036595
-5.68592e-05
0.0365799
-0.000377799
0.0365481
-0.000707906
0.0364995
-0.00104695
0.0364341
-0.00139472
0.0363518
-0.00175098
0.0362529
-0.00211542
0.0361373
-0.00248772
0.0360053
-0.00286739
0.035857
-0.00325401
0.0356927
-0.00364685
0.0355127
-0.00404538
0.0353172
-0.00444857
0.0351065
-0.00485575
0.034881
-0.00526552
0.0346411
-0.00567707
0.0343871
-0.00608865
0.0341195
-0.00649918
0.0338386
-0.00690663
0.0335451
-0.00730955
0.0332392
-0.00770559
0.0329217
-0.00809295
0.032593
-0.00846885
0.0322538
-0.00883107
0.0319042
-0.00917632
0.0315453
-0.00950207
-0.00980789
0.0311739
0.0258199
0.00587656
-0.0254069
0.0262301
0.00584777
0.0266373
0.0058146
0.0270411
0.00577772
0.0274414
0.00573713
0.0278378
0.00569276
0.0282301
0.00564449
0.0286179
0.00559214
0.0290009
0.00553563
0.0293789
0.00547478
0.0297514
0.00540939
0.0301181
0.0053393
0.0304786
0.00526436
0.0308327
0.00518445
0.03118
0.00509938
0.0315201
0.00500897
0.0318525
0.004913
0.0321769
0.00481132
0.032493
0.00470375
0.0328004
0.00459011
0.0330987
0.00447026
0.0333875
0.00434406
0.0336665
0.00421133
0.0339353
0.0040719
0.0341936
0.00392558
0.0344408
0.0037722
0.0346766
0.00361157
0.0349007
0.00344353
0.0351126
0.00326791
0.0353119
0.00308455
0.0354983
0.00289329
0.0356714
0.00269399
0.0358308
0.00248649
0.0359763
0.00227066
0.0361074
0.00204638
0.0362239
0.00181352
0.0363255
0.00157197
0.0364119
0.00132165
0.0364828
0.00106246
0.0365379
0.000794369
0.0365772
0.000517288
0.0366003
0.000231275
0.0366073
-6.37876e-05
0.0365978
-0.000368344
0.0365719
-0.000681978
0.0365294
-0.00100451
0.0364705
-0.00133577
0.0363951
-0.00167557
0.0363033
-0.00202365
0.0361953
-0.00237971
0.0360712
-0.00274331
0.0359313
-0.00311404
0.0357757
-0.00349123
0.0356046
-0.00387432
0.0354184
-0.00426234
0.0352172
-0.00465462
0.0350015
-0.00504982
0.0347716
-0.00544713
0.0345278
-0.00584486
0.0342705
-0.00624192
0.0340003
-0.00663635
0.0337174
-0.00702667
0.0334224
-0.00741063
0.0331159
-0.00778641
0.0327984
-0.00815135
0.0324707
-0.00850332
0.0321336
-0.00883929
0.031789
-0.00915744
-0.00946384
0.0314449
0.0257272
0.00546153
-0.0253121
0.0261394
0.00543548
0.0265487
0.00540536
0.0269546
0.00537184
0.0273568
0.00533493
0.027755
0.0052945
0.0281491
0.00525044
0.0285386
0.00520259
0.0289234
0.00515084
0.0293032
0.00509505
0.0296775
0.00503505
0.0300461
0.00497069
0.0304086
0.00490182
0.0307648
0.00482829
0.0311142
0.00474995
0.0314566
0.00466662
0.0317915
0.00457812
0.0321185
0.0044843
0.0324373
0.00438496
0.0327474
0.00427995
0.0330486
0.0041691
0.0333404
0.00405226
0.0336225
0.00392927
0.0338944
0.00379994
0.0341559
0.00366412
0.0344065
0.00352162
0.0346458
0.00337228
0.0348734
0.00321591
0.0350889
0.00305235
0.0352921
0.00288144
0.0354823
0.00270301
0.0356594
0.00251689
0.035823
0.00232294
0.0359727
0.002121
0.0361081
0.00191094
0.036229
0.00169261
0.0363351
0.00146589
0.0364261
0.00123067
0.0365017
0.000986838
0.0365618
0.00073432
0.036606
0.000473009
0.0366344
0.000202938
0.0366467
-7.60885e-05
0.0366428
-0.000364457
0.0366226
-0.000661823
0.0365862
-0.000968052
0.0365334
-0.00128302
0.0364644
-0.00160657
0.0363792
-0.00193846
0.036278
-0.00227844
0.0361607
-0.00262611
0.0360277
-0.00298104
0.0358792
-0.00334265
0.0357152
-0.00371036
0.0355362
-0.0040833
0.0353423
-0.00446075
0.035134
-0.00484149
0.0349115
-0.00522466
0.0346753
-0.00560864
0.0344257
-0.00599235
0.0341632
-0.00637387
0.0338883
-0.00675172
0.0336015
-0.00712381
0.0333033
-0.00748821
0.0329944
-0.00784254
0.0326757
-0.00818461
0.0323479
-0.00851151
0.0320118
-0.00882128
-0.00911428
0.0316622
0.0256598
0.00504468
-0.025243
0.0260738
0.00502146
0.0264848
0.00499439
0.0268925
0.00496418
0.0272965
0.00493086
0.0276967
0.0048943
0.0280928
0.00485438
0.0284844
0.00481098
0.0288713
0.00476397
0.0292531
0.0047132
0.0296296
0.00465854
0.0300005
0.00459984
0.0303653
0.00453696
0.0307239
0.00446975
0.0310758
0.00439807
0.0314206
0.00432174
0.0317581
0.00424062
0.0320879
0.00415453
0.0324095
0.00406332
0.0327227
0.00396681
0.0330269
0.00386485
0.0333219
0.00375728
0.0336073
0.00364392
0.0338826
0.00352462
0.0341475
0.0033992
0.0344016
0.0032675
0.0346445
0.00312934
0.0348759
0.00298455
0.0350953
0.00283295
0.0353024
0.00267438
0.0354967
0.00250867
0.035678
0.00233563
0.0358458
0.00215512
0.0359998
0.00196697
0.0361397
0.00177102
0.0362652
0.00156712
0.036376
0.00135512
0.0364717
0.0011349
0.0365523
0.000906325
0.0366173
0.000669287
0.0366666
0.00042366
0.0367001
0.000169456
0.0367176
-9.3607e-05
0.036719
-0.000365833
0.0367041
-0.00064695
0.036673
-0.000936864
0.0366254
-0.00123548
0.0365615
-0.00154269
0.0364814
-0.00185829
0.036385
-0.00218204
0.0362725
-0.00251361
0.036144
-0.0028526
0.0359999
-0.00319849
0.0358402
-0.00355073
0.0356654
-0.0039085
0.0354758
-0.00427112
0.0352717
-0.00463741
0.0350536
-0.0050065
0.0348218
-0.00537684
0.0345768
-0.00574733
0.034319
-0.00611613
0.0340491
-0.00648177
0.0337676
-0.00684231
0.0334751
-0.00719578
0.0331726
-0.00754007
0.0328609
-0.0078729
0.032541
-0.00819159
0.0322147
-0.008495
-0.0087817
0.0318822
0.0256168
0.00462597
-0.0251981
0.0260328
0.00460554
0.0264457
0.00458146
0.0268554
0.00455449
0.0272616
0.00452467
0.027664
0.00449189
0.0280623
0.00445603
0.0284563
0.00441699
0.0288457
0.00437463
0.0292301
0.00432882
0.0296092
0.00427943
0.0299827
0.00422632
0.0303503
0.00416935
0.0307117
0.00410839
0.0310665
0.00404328
0.0314143
0.00397389
0.0317549
0.00390004
0.0320878
0.0038216
0.0324127
0.00373841
0.0327292
0.0036503
0.033037
0.00355711
0.0333356
0.0034587
0.0336246
0.00335488
0.0339037
0.00324551
0.0341725
0.0031304
0.0344306
0.0030094
0.0346776
0.00288233
0.0349132
0.00274901
0.0351368
0.00260928
0.0353483
0.00246295
0.0355471
0.00230985
0.0357329
0.00214981
0.0359054
0.00198265
0.0360642
0.00180821
0.0362089
0.00162631
0.0363392
0.00143679
0.0364548
0.0012395
0.0365554
0.00103429
0.0366407
0.000821015
0.0367105
0.000599543
0.0367644
0.000369728
0.0368023
0.000131567
0.036824
-0.000115317
0.0368293
-0.000371133
0.036818
-0.000635685
0.0367901
-0.000908931
0.0367455
-0.00119083
0.0366841
-0.00148131
0.036606
-0.00178024
0.0365114
-0.00208742
0.0364004
-0.00240258
0.0362732
-0.00272539
0.03613
-0.00305536
0.0359713
-0.00339199
0.0357973
-0.00373453
0.0356085
-0.00408228
0.0354052
-0.00443415
0.035188
-0.00478927
0.0349573
-0.00514612
0.0347136
-0.00550367
0.0344575
-0.00586005
0.0341897
-0.00621396
0.0339109
-0.00656349
0.0336218
-0.00690669
0.0333235
-0.00724171
0.0330167
-0.00756613
0.0327028
-0.00787767
0.0323828
-0.00817506
-0.008456
0.0320571
0.0256017
0.0042052
-0.0251809
0.0260198
0.00418744
0.026435
0.00416626
0.026847
0.00414243
0.0272557
0.00411602
0.0276606
0.00408692
0.0280617
0.00405503
0.0284584
0.00402023
0.0288506
0.00398241
0.029238
0.00394145
0.0296202
0.00389722
0.0299969
0.00384959
0.0303678
0.00379843
0.0307326
0.00374361
0.0310909
0.00368498
0.0314424
0.0036224
0.0317867
0.00355574
0.0321235
0.00348484
0.0324523
0.00340955
0.0327729
0.00332972
0.0330848
0.0032452
0.0333877
0.00315583
0.0336811
0.00306145
0.0339647
0.0029619
0.0342381
0.00285701
0.0345009
0.00274662
0.0347527
0.00263056
0.034993
0.00250866
0.0352215
0.00238074
0.0354379
0.00224663
0.0356416
0.00210615
0.0358322
0.00195913
0.0360095
0.00180539
0.0361729
0.00164476
0.0363222
0.00147706
0.0364569
0.00130212
0.0365766
0.00111978
0.036681
0.000929875
0.0367698
0.000732246
0.0368426
0.000526741
0.0368991
0.000313195
0.0369391
9.15733e-05
0.0369624
-0.000138602
0.0369687
-0.000377452
0.0369579
-0.000624875
0.0369299
-0.000880901
0.0368846
-0.00114555
0.0368221
-0.00141882
0.0367425
-0.00170063
0.0366459
-0.00199087
0.0365327
-0.00228932
0.036403
-0.00259569
0.0362572
-0.00290958
0.0360957
-0.00323051
0.035919
-0.0035578
0.0357275
-0.00389076
0.0355217
-0.00422837
0.0353022
-0.00456974
0.0350695
-0.00491344
0.0348243
-0.00525847
0.0345672
-0.00560297
0.034299
-0.00594579
0.0340205
-0.00628496
0.0337324
-0.0066186
0.0334357
-0.00694497
0.0331311
-0.0072616
0.0328199
-0.00756641
0.0325026
-0.00785778
-0.00813126
0.0321779
0.0256198
0.00378216
-0.0251968
0.0260404
0.00376692
0.0264581
0.00374851
0.0268728
0.0037277
0.0272843
0.00370456
0.0276922
0.003679
0.0280963
0.00365092
0.0284963
0.00362022
0.0288919
0.0035868
0.0292829
0.00355054
0.0296688
0.00351132
0.0300493
0.00346903
0.0304242
0.00342353
0.0307931
0.0033747
0.0311557
0.00332241
0.0315116
0.00326653
0.0318604
0.00320692
0.0322018