/*--------------------------------*- C++ -*----------------------------------*\
| =========                 |                                                 |
| \\      /  F ield         | OpenFOAM: The Open Source CFD Toolbox           |
|  \\    /   O peration     | Version:  2312                                  |
|   \\  /    A nd           | Website:  www.openfoam.com                      |
|    \\/     M anipulation  |                                                 |
\*---------------------------------------------------------------------------*/
FoamFile
{
    version     2.0;
    format      ascii;
    arch        "LSB;label=32;scalar=64";
    class       volVectorField;
    location    "600";
    object      U;
}
// * * * * * * * * * * * * * * * * * * * * * * * * * * * * * * * * * * * * * //

dimensions      [0 1 -1 0 0 0 0];

internalField   nonuniform List<vector> 
76025
(
(1.00837 -0.166206 0)
(1.0138 -0.165976 -5.93119e-21)
(1.01921 -0.165626 0)
(1.02458 -0.165101 0)
(1.03017 -0.164467 1.67176e-20)
(1.03583 -0.163311 3.85234e-20)
(1.04164 -0.162311 -7.07816e-20)
(1.04753 -0.160862 3.12928e-20)
(1.05329 -0.159379 1.21898e-20)
(1.05899 -0.157634 -1.30685e-20)
(1.06473 -0.155666 8.2968e-22)
(1.07053 -0.153401 -4.4349e-20)
(1.07635 -0.150982 5.9011e-20)
(1.08205 -0.148263 0)
(1.08755 -0.145126 -1.74144e-20)
(1.09305 -0.142061 0)
(1.09841 -0.138417 0)
(1.10386 -0.134771 0)
(1.10917 -0.130682 -1.96777e-20)
(1.11435 -0.126583 2.18073e-20)
(1.11938 -0.122029 2.26436e-20)
(1.12426 -0.117308 6.86678e-20)
(1.12888 -0.1123 -4.65404e-20)
(1.1333 -0.106969 -7.49486e-20)
(1.13754 -0.101482 -1.51705e-21)
(1.14172 -0.0957823 -2.84565e-20)
(1.14569 -0.0895052 8.15379e-20)
(1.14951 -0.0832146 -8.21393e-20)
(1.1532 -0.0764708 2.78629e-20)
(1.15669 -0.0692284 -2.86262e-20)
(1.15982 -0.0624007 -2.95595e-20)
(1.16281 -0.0551767 6.28146e-20)
(1.16547 -0.0473708 -9.51984e-20)
(1.16795 -0.0395806 -1.65427e-20)
(1.17014 -0.0313505 8.4359e-20)
(1.17204 -0.0231091 3.25055e-22)
(1.17374 -0.0143755 -1.71164e-20)
(1.17511 -0.00539599 9.22372e-21)
(1.17615 0.00349707 4.86229e-22)
(1.17678 0.0127754 -1.40159e-20)
(1.17702 0.0221719 9.55757e-21)
(1.17705 0.0319322 -4.75058e-21)
(1.17673 0.0419696 9.42297e-21)
(1.17594 0.0521064 -1.88171e-20)
(1.17467 0.0624429 -1.91796e-20)
(1.17304 0.0729469 3.64388e-20)
(1.17107 0.0836647 3.75161e-20)
(1.16851 0.0945424 -1.12792e-19)
(1.16541 0.105598 7.15409e-20)
(1.16197 0.116812 -2.16719e-21)
(1.15807 0.128197 -1.79396e-19)
(1.15361 0.139761 -6.85469e-20)
(1.14868 0.151423 7.13526e-20)
(1.14316 0.163303 0)
(1.13679 0.175179 -6.53985e-20)
(1.1298 0.187276 -6.81967e-20)
(1.12229 0.199368 1.39314e-21)
(1.11384 0.211752 -6.41461e-20)
(1.10466 0.224421 6.19021e-20)
(1.09473 0.237343 -1.79251e-19)
(1.0845 0.249268 -1.2297e-19)
(1.07269 0.262199 -8.05615e-21)
(1.06005 0.275185 0)
(1.04657 0.288105 2.78041e-19)
(1.03193 0.300863 -1.00451e-19)
(1.01614 0.313873 5.35675e-20)
(0.999749 0.327194 -9.86532e-20)
(0.982273 0.339947 1.03934e-19)
(0.964537 0.352614 1.92135e-19)
(1.00809 -0.175622 -5.60447e-21)
(1.01388 -0.17541 -2.11475e-20)
(1.01967 -0.175017 2.7053e-20)
(1.02547 -0.174447 0)
(1.03128 -0.173694 -4.73387e-20)
(1.03722 -0.172693 -3.96063e-21)
(1.04316 -0.171481 4.20591e-20)
(1.04922 -0.170038 0)
(1.05533 -0.168378 8.61143e-22)
(1.06142 -0.166504 1.33632e-20)
(1.06751 -0.164396 -1.42573e-20)
(1.07359 -0.162041 1.01114e-21)
(1.07967 -0.159446 0)
(1.08576 -0.156593 0)
(1.0918 -0.153449 -3.85253e-20)
(1.09768 -0.150085 9.50352e-20)
(1.10353 -0.146408 2.08162e-20)
(1.10926 -0.142506 -6.47743e-20)
(1.11494 -0.138304 4.29959e-20)
(1.12048 -0.133871 -2.22114e-20)
(1.12594 -0.129139 2.52955e-20)
(1.13126 -0.124149 -4.8391e-20)
(1.13639 -0.118872 5.18768e-20)
(1.14134 -0.113303 -7.98858e-20)
(1.14609 -0.107461 5.37102e-20)
(1.15066 -0.10136 8.44691e-20)
(1.15507 -0.0949689 -5.72651e-20)
(1.15919 -0.0883069 0)
(1.16312 -0.0813394 0)
(1.16688 -0.074073 -3.25673e-20)
(1.17038 -0.0666114 0)
(1.17366 -0.0588764 -3.43425e-20)
(1.17667 -0.0508468 3.45171e-20)
(1.17936 -0.0425552 -5.28077e-20)
(1.18179 -0.0339862 1.00221e-21)
(1.1839 -0.0251753 -1.78865e-20)
(1.18575 -0.016048 0)
(1.18731 -0.006743 -3.86024e-20)
(1.18851 0.00277698 2.97516e-20)
(1.18934 0.0125382 -2.49204e-20)
(1.18978 0.0225636 1.53609e-20)
(1.18989 0.0328895 -1.57869e-22)
(1.18959 0.0432815 5.54113e-21)
(1.18883 0.0538486 -5.15957e-21)
(1.18763 0.0645995 4.16926e-20)
(1.18599 0.0756032 -2.09138e-20)
(1.18392 0.0867449 -2.13793e-20)
(1.18131 0.0980074 3.89501e-20)
(1.17817 0.10953 1.18757e-19)
(1.17453 0.121269 -1.12331e-21)
(1.17037 0.133131 1.14693e-19)
(1.16564 0.145155 -3.79364e-20)
(1.16034 0.157306 -1.09889e-19)
(1.15445 0.169539 7.41117e-20)
(1.14787 0.181827 0)
(1.14056 0.194424 2.14284e-19)
(1.13263 0.207045 -8.16154e-22)
(1.1239 0.219826 -6.92654e-20)
(1.11442 0.232722 -6.97248e-20)
(1.10423 0.245715 0)
(1.09325 0.258757 6.1181e-20)
(1.08131 0.271874 1.86565e-19)
(1.06845 0.285047 0)
(1.05473 0.298259 -1.17183e-19)
(1.04005 0.31148 6.71833e-20)
(1.02418 0.32494 -1.15729e-19)
(1.00745 0.338537 5.69593e-20)
(0.989562 0.351646 -1.06101e-19)
(0.970805 0.365973 -1.01444e-19)
(1.00783 -0.185559 3.15402e-20)
(1.01393 -0.185309 -1.8564e-20)
(1.02007 -0.184878 8.32292e-21)
(1.02627 -0.184271 -3.80659e-20)
(1.0325 -0.183451 4.82306e-20)
(1.03875 -0.182414 4.60742e-20)
(1.04502 -0.181137 -5.82667e-20)
(1.05134 -0.179627 0)
(1.0577 -0.177874 9.52153e-22)
(1.06411 -0.175875 0)
(1.07053 -0.173627 1.64788e-20)
(1.07694 -0.171128 -1.63776e-20)
(1.08333 -0.168372 -9.2035e-20)
(1.0897 -0.165352 7.33257e-20)
(1.09606 -0.162061 -1.92081e-20)
(1.10236 -0.158487 -6.26583e-20)
(1.10861 -0.154641 2.1358e-20)
(1.11475 -0.150511 2.19964e-20)
(1.1208 -0.146111 7.2541e-20)
(1.12674 -0.141422 -4.81405e-20)
(1.13255 -0.136452 -2.62848e-20)
(1.13821 -0.131193 5.37562e-20)
(1.14373 -0.125641 -2.55901e-20)
(1.1491 -0.119785 -2.91354e-20)
(1.15428 -0.113633 0)
(1.15927 -0.10719 3.10237e-20)
(1.16404 -0.100471 3.0905e-20)
(1.16857 -0.093457 -3.0161e-20)
(1.17287 -0.0861437 0)
(1.17693 -0.078544 6.7542e-20)
(1.18077 -0.0706564 -3.56512e-20)
(1.18433 -0.0625013 -2.0171e-21)
(1.18759 -0.0540807 0)
(1.19055 -0.0453698 1.81604e-20)
(1.19321 -0.036388 -5.70894e-20)
(1.19555 -0.0271378 3.8798e-20)
(1.19756 -0.0176253 0)
(1.19923 -0.00787409 3.04635e-20)
(1.20055 0.00212004 -3.14676e-20)
(1.20148 0.0123471 -5.18245e-21)
(1.20201 0.0228199 0)
(1.20215 0.0335332 -1.10877e-20)
(1.20186 0.0443961 -5.53555e-21)
(1.20112 0.0554523 5.1773e-21)
(1.19991 0.0667124 -3.20726e-20)
(1.19823 0.0781736 -2.2232e-20)
(1.19605 0.0898019 4.16756e-20)
(1.19336 0.10161 -4.2449e-20)
(1.19012 0.113615 4.31973e-20)
(1.18634 0.12579 -4.17157e-20)
(1.18202 0.138103 -4.0045e-20)
(1.17714 0.150562 8.37888e-20)
(1.17164 0.163146 0)
(1.16553 0.17584 8.12605e-20)
(1.15875 0.188653 2.73216e-21)
(1.15127 0.201619 -7.6139e-20)
(1.14308 0.214689 -7.46369e-20)
(1.13416 0.227881 1.47347e-19)
(1.12447 0.241195 -2.64504e-21)
(1.11402 0.254621 7.33046e-20)
(1.10278 0.26809 -1.439e-19)
(1.09066 0.281616 -7.33936e-20)
(1.07763 0.295245 -1.07434e-21)
(1.06368 0.308963 -6.59668e-20)
(1.04878 0.322734 -6.01367e-20)
(1.0328 0.336587 -1.92828e-19)
(1.01588 0.350596 0)
(0.997643 0.364269 -5.89831e-20)
(0.978866 0.379337 5.76075e-20)
(1.00778 -0.196144 0)
(1.01413 -0.195866 -7.40763e-21)
(1.02056 -0.195396 -4.58136e-20)
(1.0271 -0.194739 3.7135e-20)
(1.0337 -0.193864 3.54046e-20)
(1.04034 -0.192755 -5.81095e-20)
(1.047 -0.191402 1.26024e-20)
(1.05368 -0.189805 -1.46038e-20)
(1.06038 -0.187955 -1.46546e-20)
(1.06709 -0.185847 -6.69827e-20)
(1.07382 -0.183473 6.78296e-20)
(1.08056 -0.180831 7.52687e-20)
(1.08728 -0.177915 -1.65963e-20)
(1.09398 -0.174722 -8.12924e-20)
(1.10065 -0.171244 6.3655e-20)
(1.10728 -0.167476 -2.30869e-20)
(1.11386 -0.163418 2.41198e-20)
(1.12037 -0.159067 2.51463e-20)
(1.12678 -0.154424 -7.63854e-20)
(1.13307 -0.149484 2.45047e-20)
(1.13924 -0.144247 2.65626e-20)
(1.14527 -0.138707 0)
(1.15115 -0.132862 6.12712e-20)
(1.15685 -0.126708 -3.01639e-20)
(1.16239 -0.120247 -6.33859e-20)
(1.16772 -0.113481 -6.62731e-20)
(1.17284 -0.106413 1.31783e-19)
(1.17772 -0.0990373 -6.82752e-20)
(1.18237 -0.0913569 0)
(1.18676 -0.0833771 -7.20295e-20)
(1.19088 -0.0751062 -1.37605e-21)
(1.19472 -0.0665519 7.42757e-20)
(1.19824 -0.0577156 -3.90871e-20)
(1.20145 -0.0485929 9.97251e-20)
(1.20433 -0.03919 -1.93756e-20)
(1.20688 -0.0295112 0)
(1.20907 -0.0195692 0)
(1.21089 -0.00936988 1.11401e-20)
(1.21232 0.00108195 1.07614e-20)
(1.21336 0.0117779 5.80832e-21)
(1.21397 0.0227104 -1.8518e-22)
(1.21415 0.0338866 5.71182e-21)
(1.21388 0.0452527 0)
(1.21314 0.056811 -6.5021e-22)
(1.21191 0.0685559 0)
(1.21018 0.0804935 2.17124e-20)
(1.20794 0.0926119 1.87144e-23)
(1.20518 0.104905 -6.92238e-20)
(1.20188 0.117378 0)
(1.19803 0.130024 -4.43842e-20)
(1.19362 0.142824 4.39871e-20)
(1.18861 0.155763 -8.42308e-20)
(1.18298 0.168822 0)
(1.1767 0.181995 -2.52049e-19)
(1.16974 0.195291 2.65002e-21)
(1.16208 0.208714 8.20392e-20)
(1.1537 0.22226 8.057e-20)
(1.14459 0.235911 0)
(1.13473 0.249675 0)
(1.12409 0.263533 -7.37267e-20)
(1.11264 0.277468 1.44706e-19)
(1.10035 0.291479 1.41824e-19)
(1.08715 0.305571 0)
(1.07304 0.319755 -1.45489e-19)
(1.05798 0.333998 0)
(1.04188 0.34832 1.96907e-19)
(1.02479 0.3628 -6.62217e-20)
(1.00639 0.377031 -6.35701e-20)
(0.987442 0.392592 -6.55209e-20)
(1.00787 -0.207415 0)
(1.01453 -0.207131 0)
(1.02125 -0.206638 -1.00431e-20)
(1.02809 -0.205941 4.55364e-20)
(1.03502 -0.205012 -5.76431e-20)
(1.04201 -0.203833 1.26082e-20)
(1.04905 -0.202398 0)
(1.05612 -0.200703 1.47987e-20)
(1.0632 -0.198744 0)
(1.0703 -0.196514 3.62307e-20)
(1.07739 -0.194006 3.58924e-21)
(1.08448 -0.191214 -3.82753e-20)
(1.09156 -0.188133 0)
(1.0986 -0.184758 4.49696e-20)
(1.10561 -0.181085 -1.38009e-19)
(1.11258 -0.17711 9.47542e-20)
(1.11948 -0.17283 -1.24906e-19)
(1.12632 -0.168242 2.58335e-20)
(1.13306 -0.163343 -2.81143e-20)
(1.1397 -0.158132 2.74783e-20)
(1.14621 -0.152607 2.9453e-20)
(1.15259 -0.146766 -9.09838e-20)
(1.1588 -0.140605 -6.28663e-20)
(1.16485 -0.134126 0)
(1.1707 -0.12733 6.77976e-20)
(1.17635 -0.120212 3.53709e-20)
(1.18179 -0.112778 -1.04328e-19)
(1.18698 -0.10503 3.54067e-20)
(1.19194 -0.0969647 -7.5659e-20)
(1.19662 -0.0885881 1.132e-19)
(1.20101 -0.0799109 -4.05163e-20)
(1.20511 -0.0709329 2.07596e-20)
(1.20889 -0.0616557 0)
(1.21234 -0.0520834 -2.05425e-20)
(1.21544 -0.0422238 -2.1003e-20)
(1.21818 -0.0320784 0)
(1.22054 -0.0216608 2.3181e-20)
(1.22251 -0.0109795 -3.43109e-20)
(1.22407 -3.93438e-05 2.33405e-20)
(1.22521 0.0111481 -1.19865e-20)
(1.22591 0.0225816 -2.07163e-22)
(1.22616 0.0342658 -9.52522e-21)
(1.22593 0.0461446 3.10938e-21)
(1.22522 0.0582072 1.2078e-20)
(1.224 0.0704609 6.88666e-22)
(1.22227 0.0829044 7.3562e-20)
(1.22 0.0955204 0)
(1.21721 0.108314 4.69434e-20)
(1.21385 0.121285 -1.44243e-21)
(1.20992 0.134416 -4.72428e-20)
(1.2054 0.147693 0)
(1.20026 0.161104 -4.58664e-20)
(1.19448 0.174645 4.54831e-20)
(1.18805 0.188306 8.69815e-20)
(1.18093 0.202086 0)
(1.17312 0.215982 -1.70896e-19)
(1.16459 0.229994 1.7106e-19)
(1.15532 0.24411 -1.68242e-19)
(1.1453 0.258332 -2.15944e-21)
(1.1345 0.272647 0)
(1.1229 0.287051 -7.93488e-20)
(1.11045 0.301535 7.57931e-20)
(1.09711 0.316106 8.14542e-20)
(1.08286 0.330768 1.45898e-19)
(1.06765 0.345502 -2.25847e-19)
(1.05142 0.360331 1.44382e-19)
(1.03418 0.375297 -7.09843e-20)
(1.01566 0.390068 7.43102e-20)
(0.996708 0.40618 1.93718e-19)
(1.00787 -0.219392 3.49016e-20)
(1.01495 -0.219111 5.08962e-21)
(1.02206 -0.218604 -4.05953e-20)
(1.02927 -0.217879 0)
(1.03655 -0.216903 1.25461e-20)
(1.0439 -0.215658 0)
(1.0513 -0.21414 -3.20883e-20)
(1.05875 -0.212344 -2.55349e-21)
(1.06622 -0.210267 5.26995e-20)
(1.07372 -0.207904 -1.96286e-20)
(1.08121 -0.205249 -1.94945e-20)
(1.0887 -0.202296 -2.20269e-20)
(1.09616 -0.199039 0)
(1.10359 -0.195472 0)
(1.11098 -0.191592 2.40117e-20)
(1.11831 -0.187393 2.51212e-20)
(1.12557 -0.182874 -5.5225e-20)
(1.13275 -0.17803 5.50917e-20)
(1.13984 -0.172858 5.85956e-20)
(1.14682 -0.167359 -6.18482e-20)
(1.15367 -0.161529 1.23898e-19)
(1.16037 -0.155366 2.47604e-22)
(1.16692 -0.148871 -6.81875e-20)
(1.17329 -0.142043 -3.57971e-20)
(1.17947 -0.134881 -7.2582e-20)
(1.18543 -0.127388 7.265e-20)
(1.19117 -0.119563 7.6709e-20)
(1.19666 -0.111412 -7.68489e-20)
(1.20189 -0.102935 0)
(1.20683 -0.0941321 0)
(1.21149 -0.0850121 1.0476e-19)
(1.21583 -0.0755826 2.04554e-21)
(1.21984 -0.0658483 -4.35362e-20)
(1.2235 -0.0558064 -4.5295e-20)
(1.2268 -0.0454693 4.55482e-20)
(1.22972 -0.034845 0)
(1.23224 -0.0239367 -2.33039e-20)
(1.23435 -0.0127591 -3.71608e-20)
(1.23603 -0.00131812 2.47977e-20)
(1.23727 0.010376 -3.57959e-22)
(1.23806 0.022313 -2.02141e-21)
(1.23838 0.0344965 9.69406e-21)
(1.23822 0.0468871 6.81095e-21)
(1.23756 0.0594651 1.31947e-20)
(1.23637 0.0722326 -6.47714e-20)
(1.23466 0.0851893 6.68248e-22)
(1.2324 0.0983306 0)
(1.22956 0.111644 -5.26391e-20)
(1.22614 0.125119 1.51834e-19)
(1.22212 0.138748 -1.01534e-19)
(1.21748 0.152526 -4.9342e-20)
(1.21222 0.166441 -1.35548e-21)
(1.20631 0.180483 -4.65248e-20)
(1.19975 0.194643 5.77184e-22)
(1.1925 0.20892 9.41859e-20)
(1.18455 0.223307 -9.52973e-20)
(1.17589 0.237803 -9.07196e-20)
(1.1665 0.252404 1.79323e-19)
(1.15634 0.267103 -3.00223e-21)
(1.14541 0.281901 8.62495e-20)
(1.13366 0.296787 -8.5716e-20)
(1.12107 0.311762 8.11707e-20)
(1.10761 0.32683 -1.59194e-19)
(1.09322 0.341981 -7.99275e-20)
(1.07788 0.357234 1.53816e-19)
(1.06152 0.372563 -8.17137e-20)
(1.04415 0.388045 -2.30476e-19)
(1.02549 0.403327 -6.81388e-20)
(1.00648 0.419868 0)
(1.00761 -0.232127 0)
(1.01521 -0.231848 1.07818e-20)
(1.02281 -0.231329 -9.33432e-22)
(1.03048 -0.230577 0)
(1.03821 -0.229558 0)
(1.04598 -0.228251 1.60732e-20)
(1.05379 -0.226652 -5.22406e-20)
(1.06164 -0.224756 7.20531e-20)
(1.06952 -0.222561 -3.58612e-20)
(1.07742 -0.22006 1.98687e-20)
(1.08533 -0.217249 0)
(1.09323 -0.214122 2.22795e-20)
(1.1011 -0.210674 -2.50571e-20)
(1.10895 -0.206901 0)
(1.11674 -0.202796 0)
(1.12447 -0.198357 2.81969e-20)
(1.13212 -0.193581 2.53643e-21)
(1.13968 -0.188465 -5.91764e-20)
(1.14714 -0.183005 -6.20757e-20)
(1.15448 -0.177199 6.38916e-20)
(1.16168 -0.17105 3.27324e-20)
(1.16873 -0.164554 1.40706e-19)
(1.17562 -0.157705 1.26641e-21)
(1.18232 -0.150507 -3.92961e-20)
(1.18881 -0.142962 7.53912e-20)
(1.19509 -0.135069 -3.91846e-20)
(1.20112 -0.12683 7.98938e-20)
(1.2069 -0.11825 0)
(1.2124 -0.109333 0)
(1.21761 -0.100081 0)
(1.22251 -0.0904981 -2.17774e-20)
(1.22709 -0.0805935 -4.49226e-20)
(1.23131 -0.0703724 4.64495e-20)
(1.23518 -0.0598392 4.82905e-20)
(1.23866 -0.0490031 -4.85595e-20)
(1.24175 -0.0378734 0)
(1.24443 -0.026457 2.56413e-20)
(1.24669 -0.0147667 -1.31959e-20)
(1.2485 -0.00280631 0)
(1.24986 0.00941294 1.34925e-20)
(1.25073 0.0218816 -2.55444e-21)
(1.25113 0.0346014 1.73606e-21)
(1.25101 0.04753 -6.8123e-21)
(1.25037 0.0606443 0)
(1.2492 0.0739518 -2.77132e-20)
(1.24747 0.0874484 2.74524e-20)
(1.24517 0.101124 0)
(1.24228 0.114969 -1.44761e-21)
(1.23879 0.128978 1.46447e-21)
(1.2347 0.143138 5.1576e-20)
(1.22997 0.15744 0)
(1.22462 0.171873 -2.95058e-21)
(1.21861 0.186429 -4.98128e-20)
(1.21193 0.201099 -1.52857e-19)
(1.20457 0.215883 -2.67283e-21)
(1.19652 0.230772 9.5585e-20)
(1.18773 0.245767 0)
(1.17822 0.260863 0)
(1.16794 0.276056 9.68036e-20)
(1.15687 0.291349 0)
(1.145 0.306728 0)
(1.13228 0.322206 -3.33645e-21)
(1.11869 0.337778 -8.79309e-20)
(1.10417 0.353435 -1.73595e-19)
(1.0887 0.369216 1.71082e-19)
(1.07221 0.385054 -1.0504e-20)
(1.05471 0.401074 7.56798e-20)
(1.03592 0.416887 7.88257e-20)
(1.01676 0.433966 0)
(1.00712 -0.245699 0)
(1.01524 -0.245418 -1.09169e-20)
(1.02337 -0.244882 3.91919e-20)
(1.03157 -0.2441 -1.2057e-20)
(1.03982 -0.243035 0)
(1.0481 -0.241664 -5.14263e-20)
(1.0564 -0.239983 9.03922e-20)
(1.06471 -0.237988 2.90633e-21)
(1.07305 -0.235674 -1.03717e-19)
(1.0814 -0.233034 1.99625e-20)
(1.08975 -0.230064 -2.43698e-20)
(1.09809 -0.226756 -2.57206e-20)
(1.1064 -0.223108 7.90407e-20)
(1.11468 -0.219116 -1.09767e-19)
(1.1229 -0.214776 5.60715e-20)
(1.13106 -0.210085 -3.22721e-20)
(1.13913 -0.205037 1.25044e-19)
(1.14711 -0.199632 -3.00949e-20)
(1.15497 -0.193866 3.60518e-20)
(1.1627 -0.187735 -3.3535e-20)
(1.17029 -0.181237 2.53069e-21)
(1.17771 -0.174377 -2.24231e-19)
(1.18495 -0.167154 -3.98693e-20)
(1.19199 -0.159559 -2.37399e-21)
(1.19882 -0.151604 1.22858e-19)
(1.20541 -0.14329 -4.08895e-20)
(1.21175 -0.134615 8.76155e-20)
(1.21782 -0.125587 -1.33565e-19)
(1.22361 -0.116208 0)
(1.22909 -0.106478 -4.71987e-20)
(1.23425 -0.0964068 4.73364e-20)
(1.23906 -0.0860003 1.4292e-21)
(1.24351 -0.0752714 -2.57505e-20)
(1.24759 -0.0642219 -2.63082e-20)
(1.25127 -0.0528626 7.93323e-20)
(1.25453 -0.0411986 -5.2778e-20)
(1.25738 -0.0292467 4.11614e-20)
(1.25977 -0.0170102 -5.51158e-20)
(1.26171 -0.00449574 2.78923e-20)
(1.26316 0.00827926 -6.92986e-21)
(1.26412 0.0213047 0)
(1.26456 0.0345776 7.37645e-21)
(1.26448 0.0480692 -7.38034e-21)
(1.26384 0.0617468 -1.47552e-20)
(1.26265 0.0756172 4.39368e-20)
(1.26089 0.0896752 -2.98836e-20)
(1.25855 0.103912 -2.88485e-20)
(1.25561 0.118316 0)
(1.25206 0.132876 -1.15129e-19)
(1.2479 0.147581 1.12356e-19)
(1.2431 0.162422 -5.39403e-20)
(1.23765 0.177388 5.36794e-20)
(1.23154 0.192473 5.61896e-20)
(1.22476 0.207669 1.05927e-19)
(1.21729 0.222974 1.02953e-19)
(1.20912 0.23838 0)
(1.20021 0.253888 -1.05997e-19)
(1.19057 0.269493 0)
(1.18016 0.285192 2.35522e-21)
(1.16898 0.300992 -9.4998e-20)
(1.15697 0.316876 9.68785e-20)
(1.14413 0.332871 9.18388e-20)
(1.1304 0.348951 -9.56867e-20)
(1.11576 0.36514 -2.16027e-21)
(1.10016 0.381446 3.21415e-21)
(1.08356 0.39782 2.58428e-19)
(1.06591 0.414392 8.79002e-20)
(1.04702 0.430805 8.23773e-20)
(1.02767 0.448442 -8.03704e-20)
(1.00649 -0.260188 0)
(1.01512 -0.259896 0)
(1.02378 -0.259337 2.9506e-20)
(1.03252 -0.258521 -4.4161e-20)
(1.04132 -0.257405 -1.75846e-20)
(1.05015 -0.255965 0)
(1.059 -0.254198 0)
(1.06786 -0.252096 2.2019e-20)
(1.07673 -0.249655 -4.67941e-20)
(1.08559 -0.24687 -4.73455e-21)
(1.09444 -0.243735 1.26358e-19)
(1.10326 -0.240245 -2.61715e-20)
(1.11206 -0.236393 2.8718e-20)
(1.12081 -0.232174 -5.76811e-20)
(1.1295 -0.227588 3.19979e-20)
(1.13811 -0.22263 0)
(1.14663 -0.217295 0)
(1.15505 -0.211578 1.28009e-21)
(1.16334 -0.205484 -1.08428e-19)
(1.1715 -0.199006 3.6385e-20)
(1.17949 -0.192147 -4.00658e-20)
(1.1873 -0.1849 3.89059e-20)
(1.19493 -0.177271 4.12901e-20)
(1.20234 -0.169259 -3.99685e-20)
(1.20953 -0.160867 -4.25834e-20)
(1.21646 -0.152099 0)
(1.22313 -0.142957 0)
(1.22952 -0.133448 7.05831e-20)
(1.2356 -0.123576 0)
(1.24136 -0.113345 5.03129e-20)
(1.24678 -0.102764 -5.04436e-20)
(1.25185 -0.0918373 -2.53175e-20)
(1.25654 -0.0805703 2.58666e-20)
(1.26083 -0.0689742 5.43752e-20)
(1.26471 -0.057062 -2.68943e-20)
(1.26816 -0.0448374 -2.83702e-20)
(1.27116 -0.0323067 2.93259e-20)
(1.27369 -0.0194905 0)
(1.27573 -0.00639539 0)
(1.27726 0.00696844 7.75598e-21)
(1.27828 0.0205864 0)
(1.27877 0.0344519 0)
(1.27871 0.048538 -2.37461e-20)
(1.27809 0.062808 3.15782e-20)
(1.27689 0.0772684 -1.59475e-20)
(1.27511 0.0919119 2.99386e-20)
(1.27272 0.106729 0)
(1.26973 0.121707 9.17946e-20)
(1.26612 0.136836 -1.64567e-21)
(1.26187 0.152104 0)
(1.25698 0.167502 -1.17893e-19)
(1.25143 0.183019 -1.83873e-21)
(1.24521 0.198651 -1.13631e-19)
(1.23831 0.214387 -5.84932e-20)
(1.23072 0.230227 -1.11806e-19)
(1.22242 0.246161 1.10924e-19)
(1.21338 0.262194 1.06004e-19)
(1.20361 0.278317 0)
(1.19307 0.294536 -1.052e-19)
(1.18175 0.31085 3.41641e-21)
(1.16961 0.327254 0)
(1.15664 0.343771 0)
(1.14279 0.360372 9.53254e-20)
(1.12803 0.377101 0)
(1.11231 0.393935 0)
(1.09558 0.410857 -9.27591e-20)
(1.07783 0.428004 -8.49833e-20)
(1.05888 0.445001 -9.07491e-20)
(1.03921 0.462948 0)
(1.0058 -0.275675 0)
(1.01495 -0.27537 0)
(1.02414 -0.274781 0)
(1.03342 -0.273921 -1.75978e-20)
(1.04278 -0.272745 -2.07788e-20)
(1.05217 -0.271228 -3.336e-21)
(1.06159 -0.269366 4.13388e-20)
(1.07103 -0.267151 -2.22289e-20)
(1.08046 -0.264576 2.54478e-20)
(1.08989 -0.261636 5.21379e-20)
(1.0993 -0.258326 0)
(1.10868 -0.254639 0)
(1.11801 -0.250569 -1.47038e-21)
(1.12728 -0.246111 9.51335e-20)
(1.13648 -0.241262 -1.34802e-19)
(1.1456 -0.236018 -3.08008e-21)
(1.1546 -0.230381 7.06936e-20)
(1.1635 -0.22434 3.63854e-20)
(1.17226 -0.217896 -2.49453e-21)
(1.18087 -0.211051 0)
(1.18931 -0.203802 8.34285e-20)
(1.19756 -0.196152 0)
(1.2056 -0.188101 8.87998e-20)
(1.21342 -0.179649 -1.36883e-19)
(1.221 -0.170803 1.40967e-19)
(1.22831 -0.161564 4.97634e-20)
(1.23534 -0.151934 -7.55791e-20)
(1.24206 -0.141923 7.6735e-20)
(1.24847 -0.131532 -5.13458e-20)
(1.25454 -0.120764 0)
(1.26025 -0.109628 -5.48012e-20)
(1.26558 -0.0981393 -2.95665e-20)
(1.27051 -0.0863006 5.60476e-20)
(1.27502 -0.0741174 -5.76763e-20)
(1.27909 -0.0616081 2.95074e-20)
(1.28271 -0.0487811 -2.96254e-20)
(1.28585 -0.0356451 -1.47476e-20)
(1.28849 -0.0222125 1.58948e-20)
(1.29063 -0.00849639 7.6695e-21)
(1.29225 0.0054896 -2.35919e-20)
(1.29333 0.0197298 -2.08187e-21)
(1.29386 0.0342156 0)
(1.29382 0.0489234 8.04178e-21)
(1.2932 0.0638126 -1.60094e-20)
(1.29199 0.0788893 1.59219e-20)
(1.29017 0.0941446 0)
(1.28774 0.109568 0)
(1.28468 0.125145 3.28991e-20)
(1.28099 0.140867 -6.35331e-20)
(1.27665 0.15672 -1.27605e-19)
(1.27165 0.172695 2.49173e-19)
(1.26599 0.188782 -6.32207e-20)
(1.25965 0.204976 6.09765e-20)
(1.25262 0.221266 5.8429e-20)
(1.24489 0.237654 -1.18239e-19)
(1.23645 0.254127 1.17267e-19)
(1.22728 0.270696 0)
(1.21737 0.287348 -1.16753e-19)
(1.20669 0.304096 3.83365e-21)
(1.19524 0.320933 1.10054e-19)
(1.18297 0.337868 0)
(1.16987 0.354912 0)
(1.15588 0.372047 0)
(1.141 0.389323 2.05093e-19)
(1.12515 0.406683 1.01172e-19)
(1.1083 0.424192 9.31423e-20)
(1.09044 0.441841 -1.87758e-19)
(1.07138 0.459483 -5.71838e-21)
(1.05174 0.477881 9.23251e-20)
(1.0051 -0.292256 0)
(1.01478 -0.291938 -3.21248e-20)
(1.02451 -0.291319 4.06612e-20)
(1.03435 -0.290408 -3.05941e-20)
(1.04427 -0.289166 5.94199e-20)
(1.05424 -0.287562 2.2647e-20)
(1.06425 -0.285587 2.42993e-20)
(1.07427 -0.283242 0)
(1.0843 -0.280518 -5.32309e-20)
(1.09433 -0.277409 -5.60134e-20)
(1.10433 -0.273909 5.76928e-20)
(1.1143 -0.270007 -3.24146e-20)
(1.12421 -0.265703 3.55543e-20)
(1.13406 -0.260986 -2.98894e-20)
(1.14382 -0.255858 -1.45786e-19)
(1.15349 -0.250314 -3.27366e-21)
(1.16304 -0.244353 -3.22927e-21)
(1.17246 -0.237974 7.90444e-20)
(1.18173 -0.23117 4.04946e-20)
(1.19083 -0.223944 8.79681e-20)
(1.19976 -0.216291 -8.49448e-20)
(1.20848 -0.208215 0)
(1.21698 -0.199718 3.00432e-21)
(1.22524 -0.1908 0)
(1.23324 -0.181468 -4.86396e-20)
(1.24096 -0.171724 -4.99281e-20)
(1.24837 -0.161569 2.55799e-20)
(1.25546 -0.151017 0)
(1.26221 -0.14007 2.84744e-20)
(1.2686 -0.128735 5.69445e-20)
(1.2746 -0.117018 -5.70201e-20)
(1.28019 -0.104927 2.85288e-20)
(1.28537 -0.0924743 -6.0376e-20)
(1.2901 -0.0796687 1.20907e-19)
(1.29437 -0.0665234 -3.08307e-20)
(1.29815 -0.0530512 0)
(1.30144 -0.0392652 -1.65647e-20)
(1.30422 -0.02518 9.63453e-22)
(1.30647 -0.0108099 2.47163e-20)
(1.30817 0.00383134 -2.09849e-20)
(1.3093 0.018727 4.12879e-21)
(1.30987 0.0338664 -1.31454e-20)
(1.30985 0.0492274 8.70729e-21)
(1.30923 0.0647666 0)
(1.30799 0.0804888 0)
(1.30613 0.096384 0)
(1.30364 0.11244 3.5133e-20)
(1.3005 0.128643 3.4848e-20)
(1.29672 0.144981 0)
(1.29227 0.161441 6.66652e-20)
(1.28716 0.178014 6.95756e-20)
(1.28137 0.194689 6.69289e-20)
(1.27489 0.211462 0)
(1.26772 0.228321 0)
(1.25985 0.245269 -1.24767e-19)
(1.25126 0.262295 1.23679e-19)
(1.24194 0.279409 0)
(1.23189 0.2966 1.16158e-19)
(1.22107 0.313886 -1.14323e-19)
(1.20947 0.331254 -1.18729e-19)
(1.19706 0.348729 1.12794e-19)
(1.18383 0.366302 -1.11413e-19)
(1.16971 0.383987 0)
(1.15469 0.401799 -1.03394e-19)
(1.1387 0.419717 2.4222e-21)
(1.12171 0.437778 -2.07941e-19)
(1.10368 0.455986 -2.02816e-19)
(1.08441 0.474126 1.9396e-19)
(1.06469 0.493034 -9.11781e-20)
(1.00437 -0.310013 -7.76231e-21)
(1.01463 -0.309675 0)
(1.02494 -0.309017 -8.86091e-21)
(1.03537 -0.308049 5.20315e-20)
(1.04588 -0.306728 -9.74609e-20)
(1.05643 -0.305031 2.26425e-20)
(1.06704 -0.302942 -2.44896e-20)
(1.07767 -0.300457 5.60487e-20)
(1.08831 -0.297576 -2.78963e-20)
(1.09895 -0.29429 -2.94057e-20)
(1.10957 -0.290593 -3.33099e-20)
(1.12015 -0.286468 1.01957e-19)
(1.13069 -0.281918 -3.22667e-20)
(1.14115 -0.276935 1.14114e-19)
(1.15152 -0.271515 4.08622e-20)
(1.16178 -0.265658 3.4721e-21)
(1.17192 -0.259355 -8.17524e-20)
(1.18191 -0.252602 0)
(1.19175 -0.245407 0)
(1.20139 -0.237765 -4.79419e-20)
(1.21084 -0.229675 -4.63849e-20)
(1.22007 -0.221137 -1.00143e-19)
(1.22906 -0.212159 5.07021e-20)
(1.23778 -0.202743 1.05651e-19)
(1.24623 -0.192889 -1.05457e-19)
(1.25437 -0.182604 2.83186e-20)
(1.26219 -0.171891 2.89959e-20)
(1.26966 -0.160757 0)
(1.27677 -0.149211 -2.84939e-20)
(1.28348 -0.137261 -6.05568e-20)
(1.2898 -0.124914 -1.1461e-21)
(1.29568 -0.112183 6.18518e-20)
(1.30112 -0.0990779 -3.28174e-20)
(1.30609 -0.0856108 0)
(1.31057 -0.0717962 1.69948e-20)
(1.31455 -0.0576479 -1.72783e-20)
(1.318 -0.0431801 1.65342e-20)
(1.32092 -0.0284082 -3.46186e-20)
(1.32327 -0.0133481 0)
(1.32506 0.00198471 -4.58655e-21)
(1.32626 0.0175721 4.51575e-21)
(1.32686 0.033401 -7.07581e-21)
(1.32686 0.0494497 2.76475e-20)
(1.32622 0.0656723 -5.50296e-20)
(1.32495 0.0820723 3.64124e-20)
(1.32304 0.0986381 3.6259e-20)
(1.32048 0.115356 -3.3868e-20)
(1.31725 0.132211 7.34018e-20)
(1.31336 0.149192 -7.07518e-20)
(1.30879 0.166282 -1.74113e-19)
(1.30355 0.183475 1.98703e-21)
(1.29761 0.200757 -6.66098e-20)
(1.29099 0.218125 0)
(1.28366 0.235568 0)
(1.27563 0.253089 -1.31295e-19)
(1.26689 0.270678 1.92528e-19)
(1.25741 0.288348 -1.28153e-19)
(1.2472 0.306087 0)
(1.23623 0.323917 1.27031e-19)
(1.22449 0.341827 2.37955e-19)
(1.21193 0.359842 -1.15273e-19)
(1.19854 0.377953 1.10763e-21)
(1.18428 0.396185 1.14743e-19)
(1.1691 0.414536 -3.91223e-21)
(1.15296 0.433015 -2.19347e-19)
(1.13577 0.451627 2.12032e-19)
(1.11757 0.4704 1.024e-19)
(1.09793 0.489077 0)
(1.07811 0.508796 0)
(1.0036 -0.329049 7.81604e-21)
(1.01448 -0.328695 4.84395e-20)
(1.02541 -0.328003 -3.85085e-20)
(1.03646 -0.326982 0)
(1.04761 -0.325581 -1.15438e-20)
(1.05881 -0.323773 -5.36839e-20)
(1.07004 -0.321557 3.8886e-20)
(1.08131 -0.318917 -7.61779e-20)
(1.0926 -0.315853 6.04107e-20)
(1.10388 -0.31236 0)
(1.11513 -0.308433 1.54782e-20)
(1.12634 -0.304064 0)
(1.13751 -0.299233 4.12331e-20)
(1.1486 -0.29395 -1.16035e-19)
(1.15959 -0.288207 0)
(1.17047 -0.282007 0)
(1.18121 -0.275343 0)
(1.1918 -0.268207 -7.04167e-20)
(1.20223 -0.260602 9.40838e-20)
(1.21245 -0.252529 4.79901e-20)
(1.22247 -0.243982 0)
(1.23225 -0.23496 0)
(1.24177 -0.225471 0)
(1.25101 -0.215519 -1.41596e-19)
(1.25994 -0.205108 1.70425e-19)
(1.26855 -0.194245 -8.60824e-20)
(1.27681 -0.182934 -5.99568e-20)
(1.2847 -0.171185 6.18727e-20)
(1.2922 -0.159006 -6.18541e-20)
(1.29929 -0.146406 3.29655e-20)
(1.30594 -0.133395 -6.56723e-20)
(1.31214 -0.119985 3.14913e-20)
(1.31786 -0.106188 6.76453e-20)
(1.32309 -0.0920195 3.54712e-20)
(1.3278 -0.0774933 -1.69581e-20)
(1.33198 -0.0626252 1.72321e-20)
(1.33561 -0.0474316 0)
(1.33867 -0.0319292 -1.10775e-21)
(1.34114 -0.0161358 9.3095e-21)
(1.34302 -6.87053e-05 5.3368e-23)
(1.34428 0.0162521 -4.76478e-21)
(1.34491 0.0328116 1.19959e-20)
(1.34491 0.0495868 -1.96857e-20)
(1.34426 0.0665305 -9.95749e-21)
(1.34294 0.0836444 1.97999e-20)
(1.34096 0.100915 0)
(1.33831 0.118328 -7.58586e-20)
(1.33498 0.135865 -1.11607e-19)
(1.33096 0.153515 9.49285e-23)
(1.32626 0.171261 1.0955e-19)
(1.32086 0.189095 0)
(1.31477 0.207004 0)
(1.30798 0.224985 -7.31924e-20)
(1.30049 0.243026 1.42015e-19)
(1.29229 0.261134 1.85306e-21)
(1.28337 0.279297 -6.93256e-20)
(1.27373 0.297531 2.67408e-19)
(1.26335 0.315826 -1.31742e-19)
(1.25221 0.334205 -1.25494e-19)
(1.24029 0.352658 -2.56002e-19)
(1.22756 0.371214 -2.65364e-22)
(1.21399 0.389862 -1.13716e-21)
(1.19954 0.408634 2.96434e-21)
(1.18417 0.427522 2.29964e-19)
(1.16782 0.446544 -1.19562e-19)
(1.15042 0.465704 -1.13125e-19)
(1.13195 0.485021 1.14143e-19)
(1.11215 0.504371 1.12059e-19)
(1.0918 0.524376 0)
(1.00279 -0.349471 -3.82067e-20)
(1.01434 -0.349095 1.80258e-20)
(1.02594 -0.348358 0)
(1.03766 -0.34727 -1.26212e-20)
(1.04946 -0.345784 0)
(1.06133 -0.343866 4.36629e-20)
(1.07324 -0.341512 -2.78034e-20)
(1.08518 -0.338716 6.47476e-20)
(1.09715 -0.335466 -6.55597e-20)
(1.10911 -0.331759 -1.85671e-20)
(1.12105 -0.327588 9.53156e-20)
(1.13294 -0.322953 -7.6737e-20)
(1.14477 -0.317836 0)
(1.15654 -0.312233 -8.80552e-20)
(1.1682 -0.306141 1.79074e-19)
(1.17974 -0.299565 -9.09822e-20)
(1.19113 -0.292498 0)
(1.20236 -0.28494 -1.25704e-19)
(1.2134 -0.276888 1.79224e-19)
(1.22424 -0.268344 -1.04397e-19)
(1.23484 -0.259304 0)
(1.24519 -0.249766 0)
(1.25527 -0.239736 0)
(1.26505 -0.229217 2.87703e-20)
(1.2745 -0.218215 6.16574e-20)
(1.28361 -0.206738 -6.15453e-20)
(1.29235 -0.194792 3.09033e-20)
(1.30069 -0.182387 0)
(1.30861 -0.169532 6.71874e-20)
(1.31609 -0.156239 -1.00071e-19)
(1.32311 -0.142518 0)
(1.32965 -0.128384 7.05287e-20)
(1.33568 -0.11385 -3.47537e-20)
(1.34118 -0.0989319 -3.53386e-20)
(1.34614 -0.0836463 1.91065e-20)
(1.35053 -0.0680105 0)
(1.35434 -0.0520426 0)
(1.35755 -0.0357616 1.87547e-20)
(1.36014 -0.0191871 0)
(1.3621 -0.00233871 -9.92392e-21)
(1.36342 0.0147616 2.43427e-21)
(1.36408 0.0320966 1.01629e-20)
(1.36407 0.0496413 -2.67174e-22)
(1.36339 0.0673477 2.03408e-20)
(1.36202 0.0852149 4.16226e-20)
(1.35996 0.103228 2.07281e-20)
(1.3572 0.121369 -4.21306e-20)
(1.35375 0.139621 -4.0659e-20)
(1.34959 0.15797 -7.80476e-20)
(1.34474 0.176398 7.73558e-20)
(1.33917 0.194897 0)
(1.33291 0.213452 -7.76682e-20)
(1.32594 0.232064 -1.86118e-21)
(1.31826 0.250719 2.20235e-21)
(1.30987 0.269426 -1.44454e-19)
(1.30075 0.288173 0)
(1.29091 0.30698 -7.18018e-20)
(1.28032 0.325834 0)
(1.26897 0.344762 0)
(1.25684 0.363755 1.28253e-19)
(1.24389 0.382843 -7.33554e-21)
(1.23008 0.402017 -1.26352e-19)
(1.21539 0.421312 1.28258e-19)
(1.19976 0.440716 -1.22885e-19)
(1.18314 0.46026 1.12959e-19)
(1.16546 0.479933 -1.18637e-19)
(1.14668 0.499772 -2.33197e-19)
(1.12654 0.519636 -2.25058e-19)
(1.10613 0.540336 -2.76096e-21)