# Force and moment coefficients
# dragDir     : (1.000000e+00 0.000000e+00 0.000000e+00)
# sideDir     : (0.000000e+00 0.000000e+00 -1.000000e+00)
# liftDir     : (0.000000e+00 1.000000e+00 0.000000e+00)
# rollAxis    : (1.000000e+00 0.000000e+00 0.000000e+00)
# pitchAxis   : (0.000000e+00 0.000000e+00 -1.000000e+00)
# yawAxis     : (0.000000e+00 1.000000e+00 0.000000e+00)
# magUInf     : 1.000000e+00
# lRef        : 1.000000e+00
# Aref        : 1.000000e+00
# CofR        : (0.000000e+00 0.000000e+00 0.000000e+00)
#
# Time        	Cd            	Cd(f)         	Cd(r)         	Cl            	Cl(f)         	Cl(r)         	CmPitch       	CmRoll        	CmYaw         	Cs            	Cs(f)         	Cs(r)         
1             	1.654998e-03	8.178590e-04	8.371395e-04	1.928042e-05	9.626308e-06	9.654114e-06	-1.390310e-08	-9.640211e-06	8.274992e-04	-5.674735e-22	8.274992e-04	-8.274992e-04
2             	1.193973e-03	6.039259e-04	5.900474e-04	-1.387850e-05	-7.149049e-06	-6.729450e-06	-2.097996e-07	6.939250e-06	5.969866e-04	1.897053e-22	5.969866e-04	-5.969866e-04
3             	1.522244e-03	7.748588e-04	7.473847e-04	-2.747412e-05	-1.371197e-05	-1.376215e-05	2.508883e-08	1.373706e-05	7.611218e-04	-4.519412e-23	7.611218e-04	-7.611218e-04
4             	1.704832e-03	8.743490e-04	8.304833e-04	-4.386566e-05	-2.182940e-05	-2.203626e-05	1.034295e-07	2.193283e-05	8.524161e-04	-7.095981e-23	8.524161e-04	-8.524161e-04
5             	1.867990e-03	9.606708e-04	9.073190e-04	-5.335175e-05	-2.645319e-05	-2.689856e-05	2.226872e-07	2.667587e-05	9.339949e-04	-8.596739e-23	9.339949e-04	-9.339949e-04
