/*--------------------------------*- C++ -*----------------------------------*\
| =========                 |                                                 |
| \\      /  F ield         | OpenFOAM: The Open Source CFD Toolbox           |
|  \\    /   O peration     | Version:  2312                                  |
|   \\  /    A nd           | Website:  www.openfoam.com                      |
|    \\/     M anipulation  |                                                 |
\*---------------------------------------------------------------------------*/
FoamFile
{
    version     2.0;
    format      ascii;
    arch        "LSB;label=32;scalar=64";
    class       volScalarField;
    location    "1700";
    object      k;
}
// * * * * * * * * * * * * * * * * * * * * * * * * * * * * * * * * * * * * * //

dimensions      [0 2 -2 0 0 0 0];

internalField   nonuniform List<scalar> 
76025
(
4.70206e-06
4.7004e-06
4.69967e-06
4.70021e-06
4.70063e-06
4.70351e-06
4.70242e-06
4.7025e-06
4.69831e-06
4.69837e-06
4.70036e-06
4.70093e-06
4.69714e-06
4.69597e-06
4.70002e-06
4.70474e-06
4.71201e-06
4.71739e-06
4.72389e-06
4.73059e-06
4.73732e-06
4.74441e-06
4.75186e-06
4.76011e-06
4.77097e-06
4.77839e-06
4.79088e-06
4.79942e-06
4.81037e-06
4.81964e-06
4.83222e-06
4.83973e-06
4.85273e-06
4.8622e-06
4.87451e-06
4.88588e-06
4.89715e-06
4.91137e-06
4.92324e-06
4.93524e-06
4.94723e-06
4.95867e-06
4.97183e-06
4.98292e-06
4.99456e-06
5.00607e-06
5.01842e-06
5.03156e-06
5.04575e-06
5.06095e-06
5.07947e-06
5.09971e-06
5.1247e-06
5.15177e-06
5.18971e-06
5.22976e-06
5.27872e-06
5.33428e-06
5.39898e-06
5.47196e-06
5.54725e-06
5.65363e-06
5.77049e-06
5.91886e-06
6.10435e-06
6.25773e-06
6.53266e-06
6.75242e-06
6.99177e-06
4.73019e-06
4.73152e-06
4.73288e-06
4.73516e-06
4.73716e-06
4.74035e-06
4.74287e-06
4.74507e-06
4.74604e-06
4.74707e-06
4.74896e-06
4.75041e-06
4.75196e-06
4.75273e-06
4.7549e-06
4.75751e-06
4.76211e-06
4.7671e-06
4.77299e-06
4.77923e-06
4.7862e-06
4.79325e-06
4.801e-06
4.80876e-06
4.81796e-06
4.82648e-06
4.83644e-06
4.84589e-06
4.85607e-06
4.86591e-06
4.87651e-06
4.88629e-06
4.89697e-06
4.90739e-06
4.91824e-06
4.92911e-06
4.93994e-06
4.95083e-06
4.96138e-06
4.97178e-06
4.98252e-06
4.99324e-06
5.00403e-06
5.01521e-06
5.02719e-06
5.0402e-06
5.05406e-06
5.06947e-06
5.08689e-06
5.10665e-06
5.12892e-06
5.15477e-06
5.18403e-06
5.2183e-06
5.25759e-06
5.30328e-06
5.35575e-06
5.41466e-06
5.48582e-06
5.56051e-06
5.66153e-06
5.76736e-06
5.89997e-06
6.05257e-06
6.22307e-06
6.39634e-06
6.66861e-06
6.92702e-06
7.25389e-06
4.7684e-06
4.76886e-06
4.76954e-06
4.77111e-06
4.7731e-06
4.77613e-06
4.77968e-06
4.7835e-06
4.78734e-06
4.79083e-06
4.79447e-06
4.7977e-06
4.80111e-06
4.80413e-06
4.80742e-06
4.81073e-06
4.81473e-06
4.81918e-06
4.82431e-06
4.82988e-06
4.83609e-06
4.84261e-06
4.8497e-06
4.85703e-06
4.86502e-06
4.87315e-06
4.88173e-06
4.8905e-06
4.89963e-06
4.90882e-06
4.91829e-06
4.92775e-06
4.93743e-06
4.94728e-06
4.95732e-06
4.96747e-06
4.97777e-06
4.98821e-06
4.99861e-06
5.00904e-06
5.01984e-06
5.0311e-06
5.0429e-06
5.05559e-06
5.06939e-06
5.0846e-06
5.10128e-06
5.11991e-06
5.14084e-06
5.16435e-06
5.19081e-06
5.22074e-06
5.25461e-06
5.29311e-06
5.33671e-06
5.38692e-06
5.44268e-06
5.50827e-06
5.58181e-06
5.66781e-06
5.7699e-06
5.87995e-06
6.01853e-06
6.16657e-06
6.35162e-06
6.52277e-06
6.82525e-06
7.05989e-06
7.41604e-06
4.81148e-06
4.81332e-06
4.81475e-06
4.81625e-06
4.81787e-06
4.82002e-06
4.8228e-06
4.82619e-06
4.83019e-06
4.83448e-06
4.83908e-06
4.84364e-06
4.84828e-06
4.85279e-06
4.85733e-06
4.86183e-06
4.86649e-06
4.87132e-06
4.87645e-06
4.88186e-06
4.88765e-06
4.89375e-06
4.90025e-06
4.90704e-06
4.91421e-06
4.92165e-06
4.9294e-06
4.93739e-06
4.94567e-06
4.95415e-06
4.96284e-06
4.97171e-06
4.9808e-06
4.99017e-06
4.9998e-06
5.00965e-06
5.01986e-06
5.03049e-06
5.04133e-06
5.05248e-06
5.06424e-06
5.07678e-06
5.09024e-06
5.10484e-06
5.12082e-06
5.13841e-06
5.1578e-06
5.17931e-06
5.20328e-06
5.23005e-06
5.25992e-06
5.29345e-06
5.33097e-06
5.37319e-06
5.42074e-06
5.47451e-06
5.53529e-06
5.60557e-06
5.68503e-06
5.77778e-06
5.88507e-06
6.00295e-06
6.1474e-06
6.30606e-06
6.49227e-06
6.6779e-06
6.98835e-06
7.20954e-06
7.65259e-06
4.85465e-06
4.85853e-06
4.8621e-06
4.86542e-06
4.86842e-06
4.87128e-06
4.8742e-06
4.87732e-06
4.8808e-06
4.88466e-06
4.88891e-06
4.89344e-06
4.89819e-06
4.90307e-06
4.90806e-06
4.91311e-06
4.91826e-06
4.9235e-06
4.9289e-06
4.93444e-06
4.94019e-06
4.94615e-06
4.95236e-06
4.9588e-06
4.96551e-06
4.97247e-06
4.97969e-06
4.98716e-06
4.99491e-06
5.00292e-06
5.0112e-06
5.01976e-06
5.02863e-06
5.03788e-06
5.04751e-06
5.05751e-06
5.06808e-06
5.07928e-06
5.0909e-06
5.10307e-06
5.11607e-06
5.13009e-06
5.14526e-06
5.16179e-06
5.1799e-06
5.19976e-06
5.22162e-06
5.24572e-06
5.27243e-06
5.30208e-06
5.33504e-06
5.37186e-06
5.41291e-06
5.45899e-06
5.51079e-06
5.56925e-06
5.63575e-06
5.71192e-06
5.79803e-06
5.89799e-06
6.01082e-06
6.13542e-06
6.28803e-06
6.44956e-06
6.64059e-06
6.83758e-06
7.15754e-06
7.38286e-06
7.90275e-06
4.89905e-06
4.90374e-06
4.90867e-06
4.91371e-06
4.91864e-06
4.92334e-06
4.92779e-06
4.93205e-06
4.9362e-06
4.94034e-06
4.94456e-06
4.9489e-06
4.9534e-06
4.95804e-06
4.96282e-06
4.96773e-06
4.97278e-06
4.97796e-06
4.98329e-06
4.98877e-06
4.99442e-06
5.00025e-06
5.00628e-06
5.01253e-06
5.019e-06
5.02572e-06
5.0327e-06
5.03996e-06
5.04751e-06
5.05538e-06
5.06359e-06
5.07217e-06
5.08116e-06
5.09062e-06
5.10058e-06
5.11106e-06
5.12227e-06
5.13428e-06
5.14689e-06
5.16025e-06
5.17462e-06
5.19018e-06
5.20708e-06
5.22549e-06
5.24565e-06
5.26769e-06
5.29191e-06
5.31851e-06
5.34793e-06
5.38047e-06
5.41665e-06
5.45694e-06
5.50192e-06
5.55229e-06
5.60905e-06
5.67272e-06
5.74567e-06
5.82742e-06
5.92077e-06
6.02658e-06
6.14516e-06
6.27773e-06
6.43679e-06
6.60464e-06
6.79987e-06
7.01844e-06
7.3383e-06
7.58214e-06
8.11636e-06
4.94792e-06
4.95236e-06
4.9573e-06
4.96274e-06
4.96849e-06
4.97436e-06
4.98021e-06
4.98592e-06
4.99143e-06
4.99674e-06
5.00185e-06
5.00683e-06
5.01171e-06
5.01654e-06
5.02137e-06
5.02623e-06
5.03116e-06
5.03618e-06
5.04132e-06
5.04662e-06
5.05209e-06
5.05775e-06
5.06362e-06
5.06972e-06
5.07608e-06
5.08271e-06
5.08963e-06
5.09688e-06
5.10448e-06
5.11246e-06
5.12085e-06
5.1297e-06
5.13905e-06
5.14897e-06
5.1595e-06
5.17067e-06
5.18273e-06
5.19573e-06
5.20946e-06
5.2241e-06
5.23993e-06
5.25708e-06
5.27574e-06
5.29606e-06
5.31828e-06
5.34252e-06
5.36917e-06
5.39839e-06
5.43076e-06
5.46646e-06
5.50625e-06
5.55043e-06
5.59982e-06
5.65497e-06
5.71709e-06
5.78632e-06
5.86573e-06
5.95272e-06
6.05378e-06
6.16398e-06
6.29115e-06
6.42953e-06
6.59919e-06
6.7677e-06
6.97647e-06
7.20997e-06
7.53019e-06
7.81669e-06
8.34818e-06
5.00287e-06
5.00687e-06
5.01126e-06
5.01618e-06
5.02157e-06
5.02735e-06
5.03342e-06
5.03964e-06
5.0459e-06
5.0521e-06
5.05817e-06
5.06407e-06
5.06979e-06
5.07535e-06
5.08077e-06
5.08609e-06
5.09136e-06
5.09663e-06
5.10193e-06
5.10733e-06
5.11284e-06
5.11854e-06
5.12443e-06
5.13058e-06
5.13699e-06
5.14372e-06
5.15078e-06
5.15823e-06
5.16609e-06
5.17441e-06
5.18322e-06
5.19258e-06
5.20253e-06
5.21316e-06
5.22448e-06
5.23659e-06
5.24971e-06
5.26386e-06
5.27886e-06
5.29494e-06
5.31233e-06
5.3312e-06
5.35173e-06
5.37408e-06
5.39852e-06
5.42516e-06
5.4545e-06
5.48665e-06
5.52236e-06
5.56165e-06
5.60555e-06
5.65398e-06
5.70826e-06
5.76834e-06
5.83599e-06
5.91059e-06
5.99622e-06
6.08804e-06
6.19729e-06
6.3109e-06
6.44957e-06
6.59115e-06
6.77513e-06
6.93748e-06
7.17592e-06
7.40375e-06
7.76412e-06
8.0473e-06
8.83432e-06
5.06433e-06
5.06823e-06
5.07229e-06
5.07669e-06
5.08142e-06
5.08651e-06
5.09196e-06
5.09771e-06
5.10372e-06
5.1099e-06
5.11617e-06
5.12245e-06
5.12868e-06
5.13484e-06
5.1409e-06
5.14687e-06
5.15277e-06
5.15862e-06
5.16447e-06
5.17035e-06
5.17632e-06
5.18243e-06
5.18872e-06
5.19525e-06
5.20205e-06
5.20919e-06
5.2167e-06
5.22463e-06
5.23302e-06
5.24194e-06
5.25142e-06
5.26153e-06
5.27232e-06
5.28387e-06
5.2962e-06
5.30943e-06
5.3238e-06
5.33929e-06
5.35573e-06
5.37341e-06
5.39256e-06
5.41333e-06
5.43595e-06
5.46057e-06
5.4875e-06
5.51689e-06
5.54928e-06
5.58481e-06
5.62425e-06
5.66754e-06
5.71584e-06
5.76873e-06
5.82799e-06
5.89275e-06
5.96589e-06
6.04533e-06
6.13726e-06
6.23366e-06
6.35226e-06
6.46833e-06
6.62216e-06
6.7635e-06
6.96402e-06
7.12115e-06
7.39129e-06
7.62423e-06
8.00556e-06
8.38557e-06
9.31221e-06
5.13169e-06
5.13575e-06
5.13982e-06
5.14406e-06
5.14844e-06
5.15301e-06
5.15781e-06
5.16287e-06
5.16819e-06
5.17376e-06
5.17955e-06
5.18553e-06
5.19163e-06
5.19784e-06
5.2041e-06
5.21041e-06
5.21676e-06
5.22316e-06
5.22961e-06
5.23615e-06
5.2428e-06
5.24961e-06
5.25662e-06
5.26387e-06
5.27141e-06
5.27929e-06
5.28757e-06
5.2963e-06
5.30552e-06
5.31532e-06
5.32572e-06
5.33682e-06
5.34868e-06
5.36138e-06
5.37495e-06
5.38954e-06
5.40541e-06
5.42247e-06
5.44061e-06
5.46018e-06
5.48137e-06
5.50438e-06
5.52942e-06
5.55667e-06
5.58646e-06
5.61901e-06
5.65483e-06
5.6941e-06
5.73746e-06
5.78496e-06
5.83752e-06
5.89484e-06
5.95873e-06
6.02797e-06
6.10652e-06
6.19073e-06
6.28949e-06
6.39105e-06
6.51999e-06
6.6387e-06
6.81013e-06
6.94758e-06
7.16637e-06
7.3258e-06
7.61897e-06
7.89107e-06
8.27396e-06
8.92625e-06
9.71774e-06
5.20598e-06
5.21023e-06
5.21447e-06
5.21881e-06
5.22321e-06
5.22766e-06
5.23222e-06
5.23692e-06
5.24179e-06
5.24688e-06
5.25218e-06
5.25771e-06
5.26346e-06
5.26942e-06
5.27558e-06
5.28193e-06
5.28845e-06
5.29516e-06
5.30204e-06
5.30912e-06
5.31641e-06
5.32393e-06
5.33172e-06
5.33981e-06
5.34824e-06
5.35706e-06
5.36631e-06
5.37606e-06
5.38635e-06
5.39726e-06
5.40883e-06
5.42116e-06
5.43432e-06
5.44842e-06
5.46345e-06
5.47965e-06
5.49722e-06
5.51605e-06
5.5361e-06
5.55775e-06
5.58118e-06
5.60663e-06
5.6343e-06
5.66439e-06
5.69727e-06
5.73313e-06
5.7725e-06
5.8155e-06
5.86263e-06
5.91415e-06
5.97054e-06
6.03215e-06
6.10033e-06
6.17432e-06
6.25855e-06
6.34822e-06
6.45485e-06
6.56275e-06
6.70231e-06
6.82523e-06
7.01369e-06
7.14419e-06
7.38921e-06
7.54817e-06
7.89777e-06
8.16025e-06
8.78653e-06
9.35184e-06
1.0609e-05
5.28695e-06
5.29145e-06
5.29593e-06
5.3005e-06
5.3051e-06
5.30973e-06
5.3144e-06
5.31913e-06
5.32398e-06
5.32897e-06
5.33413e-06
5.33951e-06
5.34511e-06
5.35095e-06
5.35705e-06
5.36342e-06
5.37006e-06
5.37699e-06
5.3842e-06
5.39173e-06
5.39957e-06
5.40775e-06
5.41629e-06
5.42522e-06
5.43457e-06
5.44439e-06
5.45472e-06
5.46561e-06
5.47712e-06
5.48931e-06
5.50223e-06
5.51598e-06
5.53061e-06
5.54626e-06
5.56292e-06
5.58088e-06
5.60028e-06
5.62102e-06
5.64312e-06
5.66703e-06
5.69288e-06
5.72097e-06
5.75145e-06
5.78454e-06
5.82063e-06
5.85979e-06
5.90264e-06
5.94906e-06
5.99975e-06
6.0549e-06
6.11503e-06
6.18104e-06
6.25381e-06
6.33346e-06
6.42424e-06
6.52058e-06
6.63645e-06
6.75153e-06
6.90138e-06
7.03147e-06
7.2294e-06
7.36396e-06
7.62751e-06
7.81207e-06
8.21739e-06
8.56125e-06
9.4046e-06
9.99961e-06
1.20196e-05
5.37597e-06
5.38079e-06
5.38555e-06
5.39041e-06
5.39529e-06
5.4002e-06
5.40514e-06
5.41013e-06
5.41522e-06
5.42043e-06
5.42579e-06
5.43135e-06
5.43712e-06
5.44314e-06
5.44944e-06
5.45604e-06
5.46295e-06
5.4702e-06
5.47781e-06
5.4858e-06
5.49418e-06
5.50299e-06
5.51223e-06
5.52196e-06
5.5322e-06
5.54299e-06
5.55438e-06
5.56642e-06
5.57915e-06
5.59265e-06
5.60696e-06
5.62219e-06
5.6384e-06
5.65571e-06
5.67415e-06
5.69407e-06
5.71548e-06
5.73838e-06
5.76279e-06
5.78924e-06
5.81773e-06
5.84865e-06
5.88199e-06
5.91805e-06
5.95717e-06
5.9993e-06
6.04533e-06
6.09467e-06
6.14896e-06
6.20751e-06
6.27219e-06
6.34306e-06
6.42188e-06
6.50835e-06
6.60721e-06
6.7114e-06
6.838e-06
6.95921e-06
7.12123e-06
7.25567e-06
7.4625e-06
7.61078e-06
7.89886e-06
8.13284e-06
8.6325e-06
9.13505e-06
1.00817e-05
1.07839e-05
1.44164e-05
5.47307e-06
5.47834e-06
5.48355e-06
5.48884e-06
5.49416e-06
5.49949e-06
5.50486e-06
5.51029e-06
5.5158e-06
5.52144e-06
5.52723e-06
5.53321e-06
5.53941e-06
5.54587e-06
5.55261e-06
5.55968e-06
5.56709e-06
5.57487e-06
5.58305e-06
5.59166e-06
5.60072e-06
5.61027e-06
5.62032e-06
5.63093e-06
5.64213e-06
5.65397e-06
5.66649e-06
5.67975e-06
5.69379e-06
5.70871e-06
5.72453e-06
5.74138e-06
5.75932e-06
5.77848e-06
5.79889e-06
5.82095e-06
5.84452e-06
5.86971e-06
5.89647e-06
5.92547e-06
5.9564e-06
5.98996e-06
6.02573e-06
6.06448e-06
6.10617e-06
6.15107e-06
6.20022e-06
6.25274e-06
6.31153e-06
6.37425e-06
6.44553e-06
6.52212e-06
6.6096e-06
6.70354e-06
6.8125e-06
6.925e-06
7.06222e-06
7.18866e-06
7.36348e-06
7.49786e-06
7.72409e-06
7.89755e-06
8.22326e-06
8.57663e-06
9.1679e-06
9.89492e-06
1.07075e-05
1.23947e-05
1.58015e-05
5.58161e-06
5.58735e-06
5.59306e-06
5.5989e-06
5.60479e-06
5.61072e-06
5.6167e-06
5.62276e-06
5.62891e-06
5.6352e-06
5.64164e-06
5.64828e-06
5.65514e-06
5.66226e-06
5.66967e-06
5.67741e-06
5.68551e-06
5.69401e-06
5.70292e-06
5.7123e-06
5.72217e-06
5.73257e-06
5.74353e-06
5.75511e-06
5.76733e-06
5.78028e-06
5.79397e-06
5.8085e-06
5.8239e-06
5.84026e-06
5.8576e-06
5.8761e-06
5.89575e-06
5.91674e-06
5.93907e-06
5.9632e-06
5.98874e-06
6.01607e-06
6.0449e-06
6.07627e-06
6.10929e-06
6.14544e-06
6.1834e-06
6.22519e-06
6.26955e-06
6.31828e-06
6.37127e-06
6.42872e-06
6.49337e-06
6.56209e-06
6.64181e-06
6.72504e-06
6.82342e-06
6.92422e-06
7.04533e-06
7.16393e-06
7.31093e-06
7.44317e-06
7.62663e-06
7.77093e-06
8.03061e-06
8.24479e-06
8.67065e-06
9.1295e-06
9.84083e-06
1.06006e-05
1.22969e-05
1.55598e-05
1.80996e-05
5.70231e-06
5.70855e-06
5.71483e-06
5.72132e-06
5.72793e-06
5.73463e-06
5.74145e-06
5.74839e-06
5.75546e-06
5.7627e-06
5.77012e-06
5.77775e-06
5.78562e-06
5.79375e-06
5.80217e-06
5.81093e-06
5.82004e-06
5.82955e-06
5.83948e-06
5.84989e-06
5.86081e-06
5.87228e-06
5.88434e-06
5.89705e-06
5.91046e-06
5.92464e-06
5.93962e-06
5.95549e-06
5.97229e-06
5.99012e-06
6.00899e-06
6.0291e-06
6.0504e-06
6.07312e-06
6.09724e-06
6.12326e-06
6.15055e-06
6.17992e-06
6.21068e-06
6.2445e-06
6.27966e-06
6.31887e-06
6.35942e-06
6.40534e-06
6.45313e-06
6.50747e-06
6.56514e-06
6.62982e-06
6.70076e-06
6.77782e-06
6.86592e-06
6.95757e-06
7.06683e-06
7.17454e-06
7.30759e-06
7.42886e-06
7.58703e-06
7.72501e-06
7.91926e-06
8.10532e-06
8.39068e-06
8.73651e-06
9.17338e-06
9.78962e-06
1.05591e-05
1.22609e-05
1.49461e-05
1.6719e-05
1.94004e-05
5.84147e-06
5.84812e-06
5.85487e-06
5.86191e-06
5.86914e-06
5.87657e-06
5.88417e-06
5.89197e-06
5.89998e-06
5.90821e-06
5.91667e-06
5.92539e-06
5.93439e-06
5.94368e-06
5.95329e-06
5.96324e-06
5.97357e-06
5.98431e-06
5.99549e-06
6.00715e-06
6.01933e-06
6.03207e-06
6.04543e-06
6.05946e-06
6.0742e-06
6.08973e-06
6.10608e-06
6.12335e-06
6.14158e-06
6.16087e-06
6.18125e-06
6.20291e-06
6.22579e-06
6.25021e-06
6.27609e-06
6.30401e-06
6.33315e-06
6.36487e-06
6.39795e-06
6.43482e-06
6.47287e-06
6.5161e-06
6.56036e-06
6.61167e-06
6.66417e-06
6.72556e-06
6.78889e-06
6.86238e-06
6.93978e-06
7.02732e-06
7.12276e-06
7.22561e-06
7.34279e-06
7.45918e-06
7.59891e-06
7.72513e-06
7.89627e-06
8.04389e-06
8.28092e-06
8.50268e-06
8.89587e-06
9.24775e-06
9.73497e-06
1.04747e-05
1.24746e-05
1.3994e-05
1.57266e-05
1.70023e-05
1.88681e-05
6.00034e-06
6.00764e-06
6.01508e-06
6.02288e-06
6.03096e-06
6.03928e-06
6.04785e-06
6.05669e-06
6.06579e-06
6.07518e-06
6.08486e-06
6.09485e-06
6.10515e-06
6.11579e-06
6.12677e-06
6.13813e-06
6.14987e-06
6.16204e-06
6.17466e-06
6.18776e-06
6.20139e-06
6.21559e-06
6.23039e-06
6.24588e-06
6.26207e-06
6.27907e-06
6.2969e-06
6.31568e-06
6.33542e-06
6.3563e-06
6.37831e-06
6.40169e-06
6.42636e-06
6.45277e-06
6.48081e-06
6.51105e-06
6.54269e-06
6.57741e-06
6.61376e-06
6.65444e-06
6.69663e-06
6.74461e-06
6.79415e-06
6.85132e-06
6.91032e-06
6.97875e-06
7.04968e-06
7.13168e-06
7.21745e-06
7.31539e-06
7.41863e-06
7.53286e-06
7.6542e-06
7.78069e-06
7.92211e-06
8.06729e-06
8.24721e-06
8.45029e-06
8.70552e-06
9.0433e-06
9.36862e-06
9.7346e-06
1.04276e-05
1.2311e-05
1.40371e-05
1.49123e-05
1.56888e-05
1.63473e-05
1.83438e-05
6.18838e-06
6.19629e-06
6.2044e-06
6.21294e-06
6.22182e-06
6.23101e-06
6.24052e-06
6.25036e-06
6.26053e-06
6.27104e-06
6.2819e-06
6.29312e-06
6.3047e-06
6.31666e-06
6.329e-06
6.34174e-06
6.3549e-06
6.3685e-06
6.38256e-06
6.39713e-06
6.41222e-06
6.42792e-06
6.44423e-06
6.46125e-06
6.47899e-06
6.49761e-06
6.51707e-06
6.53759e-06
6.55912e-06
6.58192e-06
6.60597e-06
6.63156e-06
6.65863e-06
6.6877e-06
6.71866e-06
6.75192e-06
6.78721e-06
6.82567e-06
6.86666e-06
6.91163e-06
6.95956e-06
7.01231e-06
7.06909e-06
7.13144e-06
7.19949e-06
7.27366e-06
7.3555e-06
7.44418e-06
7.54204e-06
7.64687e-06
7.76053e-06
7.88057e-06
8.00805e-06
8.1442e-06
8.30236e-06
8.46997e-06
8.70092e-06
8.93803e-06
9.24871e-06
9.50097e-06
9.75081e-06
1.03014e-05
1.18598e-05
1.33715e-05
1.44873e-05
1.47073e-05
1.5274e-05
1.62887e-05
1.76702e-05
6.40748e-06
6.41652e-06
6.42581e-06
6.43559e-06
6.44577e-06
6.45632e-06
6.46725e-06
6.47855e-06
6.49025e-06
6.50233e-06
6.51481e-06
6.52769e-06
6.54096e-06
6.55463e-06
6.56871e-06
6.58319e-06
6.5981e-06
6.61346e-06
6.62929e-06
6.64563e-06
6.66249e-06
6.67998e-06
6.69808e-06
6.71694e-06
6.73654e-06
6.75708e-06
6.77852e-06
6.80111e-06
6.82481e-06
6.84992e-06
6.87643e-06
6.9046e-06
6.93461e-06
6.96671e-06
7.00117e-06
7.03766e-06
7.07734e-06
7.11943e-06
7.16595e-06
7.21483e-06
7.26988e-06
7.32678e-06
7.39308e-06
7.45971e-06
7.54022e-06
7.61893e-06
7.7154e-06
7.80887e-06
7.9204e-06
8.02879e-06
8.15396e-06
8.27757e-06
8.42405e-06
8.58137e-06
8.80023e-06
8.97014e-06
9.23611e-06
9.33975e-06
9.5733e-06
9.7173e-06
9.98709e-06
1.18011e-05
1.27485e-05
1.32005e-05
1.36162e-05
1.36486e-05
1.41396e-05
1.51931e-05
1.61825e-05
6.67425e-06
6.6842e-06
6.69444e-06
6.70523e-06
6.71647e-06
6.72813e-06
6.74021e-06
6.75271e-06
6.76565e-06
6.77903e-06
6.79285e-06
6.80712e-06
6.82183e-06
6.83699e-06
6.85261e-06
6.8687e-06
6.88526e-06
6.90232e-06
6.91989e-06
6.93804e-06
6.95677e-06
6.97617e-06
6.99628e-06
7.0172e-06
7.03898e-06
7.06176e-06
7.08562e-06
7.11067e-06
7.13712e-06
7.16501e-06
7.19471e-06
7.22602e-06
7.25991e-06
7.2955e-06
7.33458e-06
7.37498e-06
7.42064e-06
7.46716e-06
7.52108e-06
7.5749e-06
7.6391e-06
7.70159e-06
7.77953e-06
7.85183e-06
7.94666e-06
8.02996e-06
8.14089e-06
8.23718e-06
8.35963e-06
8.47687e-06
8.61173e-06
8.77839e-06
8.94413e-06
9.10096e-06
9.19431e-06
9.26537e-06
9.41672e-06
9.32064e-06
9.543e-06
9.67396e-06
1.13408e-05
1.12523e-05
1.14643e-05
1.28358e-05
1.39035e-05
1.48145e-05
1.55831e-05
1.64074e-05
1.73618e-05
6.99423e-06
7.00626e-06
7.01864e-06
7.03164e-06
7.04515e-06
7.05911e-06
7.07353e-06
7.08838e-06
7.10367e-06
7.11939e-06
7.13555e-06
7.15215e-06
7.16918e-06
7.18666e-06
7.20459e-06
7.22298e-06
7.24186e-06
7.26124e-06
7.28116e-06
7.30166e-06
7.3228e-06
7.34461e-06
7.36723e-06
7.39061e-06
7.41508e-06
7.44039e-06
7.46717e-06
7.49488e-06
7.52463e-06
7.55533e-06
7.58884e-06
7.62327e-06
7.66181e-06
7.70075e-06
7.74531e-06
7.78943e-06
7.84195e-06
7.89292e-06
7.95515e-06
8.01495e-06
8.0885e-06
8.15921e-06
8.24625e-06
8.328e-06
8.42958e-06
8.52119e-06
8.63568e-06
8.74032e-06
8.88275e-06
9.03046e-06
9.14922e-06
9.2326e-06
9.23966e-06
9.25695e-06
9.1837e-06
9.19261e-06
8.92083e-06
8.85186e-06
9.24359e-06
1.02225e-05
1.07371e-05
1.10029e-05
1.17531e-05
1.37881e-05
1.38506e-05
1.40649e-05
1.43938e-05
1.46417e-05
1.48824e-05
7.39564e-06
7.40854e-06
7.42188e-06
7.43595e-06
7.45063e-06
7.46587e-06
7.48167e-06
7.49799e-06
7.51484e-06
7.53221e-06
7.55009e-06
7.56847e-06
7.58737e-06
7.60677e-06
7.6267e-06
7.64716e-06
7.6682e-06
7.68982e-06
7.71212e-06
7.73504e-06
7.75886e-06
7.78333e-06
7.80903e-06
7.83535e-06
7.86345e-06
7.89199e-06
7.92312e-06
7.95441e-06
7.98939e-06
8.02413e-06
8.06388e-06
8.10304e-06
8.14887e-06
8.19325e-06
8.24678e-06
8.29735e-06
8.36067e-06
8.41835e-06
8.49229e-06
8.55899e-06
8.64233e-06
8.71968e-06
8.81155e-06
8.89866e-06
8.99748e-06
9.10082e-06
9.22724e-06
9.344e-06
9.41742e-06
9.42035e-06
9.39453e-06
9.32124e-06
9.22792e-06
9.04773e-06
8.68084e-06
8.54875e-06
8.30749e-06
8.37213e-06
9.12486e-06
9.87919e-06
1.19616e-05
1.2843e-05
1.37268e-05
1.39069e-05
1.50183e-05
1.51323e-05
1.51003e-05
1.45322e-05
1.46375e-05
7.90089e-06
7.91732e-06
7.93418e-06
7.95185e-06
7.97017e-06
7.9891e-06
8.0086e-06
8.02864e-06
8.04922e-06
8.07031e-06
8.09192e-06
8.11404e-06
8.13666e-06
8.15978e-06
8.18344e-06
8.20761e-06
8.23239e-06
8.2577e-06
8.28381e-06
8.31044e-06
8.33819e-06
8.36638e-06
8.39627e-06
8.4263e-06
8.45905e-06
8.49136e-06
8.52793e-06
8.56323e-06
8.60452e-06
8.64369e-06
8.69057e-06
8.73501e-06
8.78773e-06
8.83799e-06
8.89769e-06
8.95362e-06
9.02227e-06
9.08222e-06
9.15943e-06
9.22532e-06
9.30185e-06
9.38219e-06
9.46589e-06
9.55633e-06
9.63647e-06
9.69267e-06
9.69421e-06
9.67087e-06
9.58987e-06
9.47786e-06
9.28249e-06
8.96798e-06
8.72795e-06
8.11075e-06
7.8523e-06
7.75523e-06
7.61951e-06
7.81473e-06
8.8232e-06
9.74051e-06
1.21579e-05
1.29349e-05
1.40773e-05
1.36396e-05
1.42882e-05
1.34296e-05
1.23288e-05
1.17334e-05
1.27299e-05
8.5787e-06
8.59568e-06
8.61328e-06
8.63187e-06
8.65128e-06
8.67148e-06
8.69243e-06
8.71411e-06
8.7365e-06
8.7596e-06
8.7834e-06
8.8079e-06
8.8331e-06
8.85904e-06
8.8857e-06
8.91315e-06
8.94144e-06
8.97062e-06
9.00086e-06
9.03202e-06
9.06472e-06
9.09813e-06
9.13395e-06
9.16989e-06
9.20957e-06
9.24823e-06
9.29231e-06
9.33386e-06
9.38235e-06
9.42712e-06
9.47911e-06
9.52813e-06
9.58277e-06
9.63807e-06
9.69298e-06
9.75124e-06
9.80557e-06
9.85934e-06
9.91179e-06
9.95799e-06
9.99573e-06
1.00447e-05
1.0052e-05
1.00313e-05
9.97466e-06
9.8566e-06
9.7429e-06
9.55676e-06
9.30286e-06
8.96923e-06
8.7268e-06
8.21113e-06
7.86637e-06
7.29551e-06
7.25628e-06
7.55142e-06
7.74922e-06
7.86676e-06
8.92107e-06
9.05432e-06
9.69645e-06
8.98536e-06
8.84438e-06
8.93557e-06
9.32401e-06
8.87131e-06
8.00779e-06
7.66116e-06
8.14727e-06
9.49582e-06
9.52061e-06
9.54591e-06
9.57231e-06
9.59969e-06
9.62797e-06
9.65714e-06
9.68711e-06
9.71784e-06
9.74926e-06
9.78127e-06
9.81391e-06
9.84689e-06
9.88046e-06
9.91421e-06
9.94849e-06
9.98271e-06
1.00174e-05
1.00519e-05
1.00867e-05
1.01214e-05
1.01555e-05
1.01903e-05
1.02231e-05
1.02568e-05
1.02864e-05
1.03172e-05
1.03426e-05
1.03703e-05
1.03921e-05
1.04159e-05
1.04347e-05
1.04542e-05
1.04744e-05
1.04858e-05
1.05069e-05
1.05345e-05
1.05352e-05
1.05174e-05
1.04646e-05
1.03892e-05
1.02819e-05
1.01548e-05
1.00129e-05
9.81758e-06
9.62341e-06
9.43193e-06
9.21577e-06
8.92635e-06
8.55973e-06
8.29697e-06
7.83239e-06
7.39561e-06
7.08994e-06
6.56293e-06
6.17795e-06
5.97448e-06
5.83643e-06
5.33727e-06
5.0225e-06
4.47672e-06
3.99836e-06
4.05814e-06
4.13166e-06
4.22286e-06
4.40259e-06
3.86735e-06
3.51767e-06
3.64349e-06
1.09961e-05
1.10041e-05
1.10132e-05
1.10225e-05
1.1031e-05
1.10386e-05
1.10442e-05
1.10495e-05
1.10523e-05
1.10554e-05
1.10571e-05
1.10569e-05
1.10666e-05
1.10641e-05
1.10671e-05
1.1067e-05
1.10744e-05
1.10738e-05
1.10641e-05
1.10485e-05
1.10347e-05
1.10175e-05
1.10034e-05
1.09828e-05
1.09627e-05
1.09372e-05
1.09064e-05
1.08708e-05
1.08405e-05
1.08008e-05
1.07847e-05
1.07727e-05
1.07604e-05
1.07429e-05
1.07332e-05
1.07556e-05
1.07364e-05
1.07508e-05
1.07219e-05
1.07314e-05
1.06459e-05
1.05943e-05
1.05155e-05
1.04116e-05
1.01096e-05
1.00516e-05
9.93213e-06
9.51136e-06
8.98403e-06
8.45717e-06
7.79641e-06
7.06093e-06
6.27891e-06
5.5289e-06
4.81946e-06
3.98174e-06
3.18405e-06
2.43754e-06
1.94136e-06
1.52151e-06
1.3742e-06
1.49256e-06
1.80756e-06
1.85391e-06
1.85966e-06
1.81678e-06
1.5184e-06
9.74548e-07
1.06958e-06
1.04187e-05
1.03946e-05
1.03881e-05
1.03908e-05
1.03991e-05
1.041e-05
1.04238e-05
1.04389e-05
1.04559e-05
1.04749e-05
1.04935e-05
1.05176e-05
1.05344e-05
1.05647e-05
1.05832e-05
1.05987e-05
1.06119e-05
1.06347e-05
1.06438e-05
1.06508e-05
1.06577e-05
1.06466e-05
1.06906e-05
1.06833e-05
1.07685e-05
1.09372e-05
1.12103e-05
1.15672e-05
1.20046e-05
1.25328e-05
1.3091e-05
1.36672e-05
1.42761e-05
1.4884e-05
1.5471e-05
1.60648e-05
1.66086e-05
1.70237e-05
1.7284e-05
1.74471e-05
1.74362e-05
1.72688e-05
1.6777e-05
1.57858e-05
1.45708e-05
1.31593e-05
1.1618e-05
9.92674e-06
8.08679e-06
6.12523e-06
4.37147e-06
3.01887e-06
2.05397e-06
1.40298e-06
9.72318e-07
6.84769e-07
5.01182e-07
3.85452e-07
3.13171e-07
2.59782e-07
2.46895e-07
2.54938e-07
3.12963e-07
3.84402e-07
3.93456e-07
3.5342e-07
2.55411e-07
1.99035e-07
2.33616e-07
2.68109e-05
2.7743e-05
2.86972e-05
2.9662e-05
3.06464e-05
3.16368e-05
3.26422e-05
3.36497e-05
3.46674e-05
3.56826e-05
3.67036e-05
3.77175e-05
3.8732e-05
3.9736e-05
4.07342e-05
4.17174e-05
4.26906e-05
4.36423e-05
4.4577e-05
4.5492e-05
4.63778e-05
4.72355e-05
4.80706e-05
4.88976e-05
4.96834e-05
5.01616e-05
5.08306e-05
5.07742e-05
5.19706e-05
5.23045e-05
5.1794e-05
5.08285e-05
4.97245e-05
4.8453e-05
4.69816e-05
4.52809e-05
4.33288e-05
4.11041e-05
3.85958e-05
3.58078e-05
3.27613e-05
2.9499e-05
2.60794e-05
2.25763e-05
1.90881e-05
1.57202e-05
1.25846e-05
9.75555e-06
7.26298e-06
4.82596e-06
2.81172e-06
1.42911e-06
6.45761e-07
2.72667e-07
1.15692e-07
5.48765e-08
3.94769e-08
4.96315e-08
6.23938e-08
6.77637e-08
6.87834e-08
6.91985e-08
7.67047e-08
1.12445e-07
1.94488e-07
2.65198e-07
3.20326e-07
2.9788e-07
2.4018e-07
4.80924e-06
4.80819e-06
4.8083e-06
4.80737e-06
4.80552e-06
4.80437e-06
4.8037e-06
4.80343e-06
4.80433e-06
4.8047e-06
4.80461e-06
4.80572e-06
4.80976e-06
4.81089e-06
4.80554e-06
4.8014e-06
4.8007e-06
4.80089e-06
4.79572e-06
4.79036e-06
4.79107e-06
4.79471e-06
4.78869e-06
4.78539e-06
4.77881e-06
4.77379e-06
4.77399e-06
4.7739e-06
4.77459e-06
4.77096e-06
4.76672e-06
4.76383e-06
4.76277e-06
4.75803e-06
4.75468e-06
4.7504e-06
4.74864e-06
4.74502e-06
4.74027e-06
4.73631e-06
4.7321e-06
4.73047e-06
4.72722e-06
4.72185e-06
4.72006e-06
4.71631e-06
4.71461e-06
4.71257e-06
4.70898e-06
4.70515e-06
4.7026e-06
4.70169e-06
4.70394e-06
4.70528e-06
4.70552e-06
4.70464e-06
4.70394e-06
4.70032e-06
4.70053e-06
4.83689e-06
4.83491e-06
4.83396e-06
4.833e-06
4.83237e-06
4.83171e-06
4.83115e-06
4.83129e-06
4.83115e-06
4.83293e-06
4.83264e-06
4.83434e-06
4.83513e-06
4.8288e-06
4.8266e-06
4.82567e-06
4.82651e-06
4.8223e-06
4.81711e-06
4.81577e-06
4.8166e-06
4.81711e-06
4.80942e-06
4.80648e-06
4.79921e-06
4.79578e-06
4.79593e-06
4.79616e-06
4.79575e-06
4.79181e-06
4.78793e-06
4.78523e-06
4.78367e-06
4.77935e-06
4.77623e-06
4.77219e-06
4.77001e-06
4.76728e-06
4.76359e-06
4.75905e-06
4.75468e-06
4.75298e-06
4.75078e-06
4.74662e-06
4.74406e-06
4.74133e-06
4.73949e-06
4.73819e-06
4.73565e-06
4.73235e-06
4.72968e-06
4.72668e-06
4.72612e-06
4.72798e-06
4.73006e-06
4.73014e-06
4.73092e-06
4.72872e-06
4.72904e-06
4.86644e-06
4.86381e-06
4.86349e-06
4.86231e-06
4.86199e-06
4.86245e-06
4.86194e-06
4.86399e-06
4.8643e-06
4.86422e-06
4.86187e-06
4.85931e-06
4.85811e-06
4.85662e-06
4.85652e-06
4.85619e-06
4.85203e-06
4.84577e-06
4.84286e-06
4.84276e-06
4.8438e-06
4.84164e-06
4.83349e-06
4.83035e-06
4.82318e-06
4.82098e-06
4.82129e-06
4.82121e-06
4.82002e-06
4.81585e-06
4.81234e-06
4.80959e-06
4.80765e-06
4.80371e-06
4.80068e-06
4.79691e-06
4.79449e-06
4.79206e-06
4.78924e-06
4.78558e-06
4.78062e-06
4.77866e-06
4.7769e-06
4.77459e-06
4.77184e-06
4.76973e-06
4.76782e-06
4.76661e-06
4.76526e-06
4.76257e-06
4.76097e-06
4.76001e-06
4.75906e-06
4.76018e-06
4.76223e-06
4.7641e-06
4.76604e-06
4.76703e-06
4.76761e-06
4.89883e-06
4.89851e-06
4.89647e-06
4.89645e-06
4.89731e-06
4.8976e-06
4.89963e-06
4.89954e-06
4.89693e-06
4.89473e-06
4.89228e-06
4.8905e-06
4.88912e-06
4.8876e-06
4.88674e-06
4.88383e-06
4.8779e-06
4.87444e-06
4.87357e-06
4.87436e-06
4.87362e-06
4.8679e-06
4.86017e-06
4.85697e-06
4.8505e-06
4.84915e-06
4.84924e-06
4.84894e-06
4.84696e-06
4.84273e-06
4.83946e-06
4.83663e-06
4.83444e-06
4.8308e-06
4.82785e-06
4.82438e-06
4.82187e-06
4.81957e-06
4.81725e-06
4.81447e-06
4.81038e-06
4.80758e-06
4.80601e-06
4.80421e-06
4.80226e-06
4.80015e-06
4.79905e-06
4.79751e-06
4.79589e-06
4.79556e-06
4.79507e-06
4.79497e-06
4.79526e-06
4.79639e-06
4.7984e-06
4.8009e-06
4.80374e-06
4.80664e-06
4.80887e-06
4.93967e-06
4.93942e-06
4.93739e-06
4.93825e-06
4.93893e-06
4.93871e-06
4.93602e-06
4.93384e-06
4.93198e-06
4.92883e-06
4.92703e-06
4.92534e-06
4.92315e-06
4.92124e-06
4.91901e-06
4.91507e-06
4.90973e-06
4.90836e-06
4.90882e-06
4.90846e-06
4.90445e-06
4.89736e-06
4.89095e-06
4.88738e-06
4.88171e-06
4.88092e-06
4.88081e-06
4.87996e-06
4.87743e-06
4.87317e-06
4.87006e-06
4.86712e-06
4.86478e-06
4.86144e-06
4.85855e-06
4.85545e-06
4.85286e-06
4.85058e-06
4.84854e-06
4.8464e-06
4.84369e-06
4.84083e-06
4.83901e-06
4.83724e-06
4.83654e-06
4.83497e-06
4.83309e-06
4.83145e-06
4.83156e-06
4.83201e-06
4.8326e-06
4.83331e-06
4.83433e-06
4.83583e-06
4.83792e-06
4.84061e-06
4.84372e-06
4.84732e-06
4.85053e-06
4.98381e-06
4.98346e-06
4.98226e-06
4.98154e-06
4.97816e-06
4.97565e-06
4.97415e-06
4.9722e-06
4.97e-06
4.96701e-06
4.96529e-06
4.96334e-06
4.96127e-06
4.95907e-06
4.95516e-06
4.9497e-06
4.9476e-06
4.94807e-06
4.94794e-06
4.94256e-06
4.93826e-06
4.9309e-06
4.92512e-06
4.92118e-06
4.91643e-06
4.9161e-06
4.91551e-06
4.91417e-06
4.91101e-06
4.90693e-06
4.90388e-06
4.90087e-06
4.89841e-06
4.8953e-06
4.89245e-06
4.88966e-06
4.88715e-06
4.88497e-06
4.88311e-06
4.88134e-06
4.87945e-06
4.87744e-06
4.87555e-06
4.87382e-06
4.87207e-06
4.87141e-06
4.87139e-06
4.87121e-06
4.87164e-06
4.8727e-06
4.87418e-06
4.87583e-06
4.87763e-06
4.87967e-06
4.88197e-06
4.8847e-06
4.88774e-06
4.89129e-06
4.8946e-06
5.03209e-06
5.02993e-06
5.02714e-06
5.02514e-06
5.02196e-06
5.02003e-06
5.01765e-06
5.01555e-06
5.0134e-06
5.01169e-06
5.00985e-06
5.00748e-06
5.00398e-06
4.99946e-06
4.99399e-06
4.99232e-06
4.99294e-06
4.99129e-06
4.98712e-06
4.98216e-06
4.97649e-06
4.9691e-06
4.96393e-06
4.9601e-06
4.95613e-06
4.95595e-06
4.95473e-06
4.95267e-06
4.94925e-06
4.94518e-06
4.9422e-06
4.93909e-06
4.93654e-06
4.93365e-06
4.93091e-06
4.92833e-06
4.92596e-06
4.92384e-06
4.92204e-06
4.92069e-06
4.91915e-06
4.91743e-06
4.91573e-06
4.91539e-06
4.91495e-06
4.91507e-06
4.91548e-06
4.91605e-06
4.91698e-06
4.91849e-06
4.92055e-06
4.92296e-06
4.92553e-06
4.92826e-06
4.93105e-06
4.93404e-06
4.93717e-06
4.94057e-06
4.94373e-06
5.07934e-06
5.07726e-06
5.0753e-06
5.0733e-06
5.07106e-06
5.06956e-06
5.06769e-06
5.06588e-06
5.06397e-06
5.06123e-06
5.05707e-06
5.05249e-06
5.0473e-06
5.04301e-06
5.04157e-06
5.04209e-06
5.03831e-06
5.03613e-06
5.03089e-06
5.02492e-06
5.0182e-06
5.01197e-06
5.00747e-06
5.00351e-06
4.99991e-06
4.99971e-06
4.99776e-06
4.99515e-06
4.99129e-06
4.98755e-06
4.98454e-06
4.9814e-06