/*--------------------------------*- C++ -*----------------------------------*\
| =========                 |                                                 |
| \\      /  F ield         | OpenFOAM: The Open Source CFD Toolbox           |
|  \\    /   O peration     | Version:  2312                                  |
|   \\  /    A nd           | Website:  www.openfoam.com                      |
|    \\/     M anipulation  |                                                 |
\*---------------------------------------------------------------------------*/
FoamFile
{
    version     2.0;
    format      ascii;
    arch        "LSB;label=32;scalar=64";
    class       volScalarField;
    location    "1700";
    object      nut;
}
// * * * * * * * * * * * * * * * * * * * * * * * * * * * * * * * * * * * * * //

dimensions      [0 2 -1 0 0 0 0];

internalField   nonuniform List<scalar> 
76025
(
7.984e-05
8.1655e-05
8.2678e-05
8.15507e-05
8.05297e-05
7.85236e-05
7.98159e-05
8.01177e-05
8.26843e-05
8.19346e-05
8.14298e-05
8.1614e-05
8.31176e-05
8.38493e-05
8.27127e-05
8.41935e-05
8.20825e-05
8.30907e-05
8.32262e-05
8.38959e-05
8.27571e-05
8.293e-05
8.22687e-05
8.11256e-05
8.15409e-05
8.01755e-05
7.71541e-05
7.98043e-05
7.59826e-05
7.52488e-05
7.89696e-05
7.80428e-05
7.48289e-05
7.64923e-05
7.50406e-05
7.63392e-05
7.34956e-05
7.26798e-05
7.44905e-05
7.34937e-05
7.33339e-05
7.1614e-05
7.10029e-05
7.24869e-05
7.23011e-05
7.20558e-05
7.13549e-05
7.17921e-05
7.26085e-05
7.28905e-05
7.24842e-05
7.20669e-05
7.15391e-05
6.9229e-05
6.65158e-05
6.46253e-05
6.20211e-05
5.91912e-05
5.70659e-05
5.58392e-05
5.41381e-05
4.84154e-05
4.76299e-05
4.61247e-05
4.37791e-05
4.2249e-05
4.35989e-05
4.17368e-05
4.35675e-05
7.41605e-05
7.62666e-05
7.69572e-05
7.72914e-05
7.67644e-05
7.57512e-05
7.5571e-05
7.51171e-05
7.59155e-05
7.6617e-05
7.6832e-05
7.6838e-05
7.72633e-05
7.75621e-05
7.79265e-05
7.85211e-05
7.82107e-05
7.86315e-05
7.86004e-05
7.8987e-05
7.89099e-05
7.93262e-05
7.91472e-05
7.86959e-05
7.85774e-05
7.84484e-05
7.79117e-05
7.76807e-05
7.71533e-05
7.67509e-05
7.70827e-05
7.68655e-05
7.63215e-05
7.6006e-05
7.5605e-05
7.54781e-05
7.56712e-05
7.63631e-05
7.68635e-05
7.67736e-05
7.65734e-05
7.74034e-05
7.81618e-05
7.8094e-05
7.79098e-05
7.81774e-05
7.84398e-05
7.76452e-05
7.6841e-05
7.64778e-05
7.58967e-05
7.48642e-05
7.33562e-05
7.13217e-05
6.83195e-05
6.58022e-05
6.32704e-05
6.05049e-05
5.82918e-05
5.61271e-05
5.32067e-05
5.06206e-05
4.85568e-05
4.68429e-05
4.48152e-05
4.3349e-05
4.38766e-05
4.28534e-05
4.69948e-05
6.86645e-05
7.05297e-05
7.10908e-05
7.15916e-05
7.19272e-05
7.19578e-05
7.18497e-05
7.16158e-05
7.15779e-05
7.1828e-05
7.21667e-05
7.24599e-05
7.2775e-05
7.30534e-05
7.33769e-05
7.37816e-05
7.41223e-05
7.45065e-05
7.48073e-05
7.51187e-05
7.54208e-05
7.57328e-05
7.5866e-05
7.58556e-05
7.58926e-05
7.60077e-05
7.60896e-05
7.59847e-05
7.59174e-05
7.59093e-05
7.59395e-05
7.60202e-05
7.60058e-05
7.58533e-05
7.57803e-05
7.57746e-05
7.58728e-05
7.61507e-05
7.65738e-05
7.68689e-05
7.69418e-05
7.71887e-05
7.73094e-05
7.70834e-05
7.67756e-05
7.64399e-05
7.5877e-05
7.4908e-05
7.39082e-05
7.29711e-05
7.18007e-05
7.02902e-05
6.84774e-05
6.6334e-05
6.38631e-05
6.15032e-05
5.90945e-05
5.66974e-05
5.44253e-05
5.2277e-05
5.0037e-05
4.76923e-05
4.58086e-05
4.41364e-05
4.27008e-05
4.13134e-05
4.20426e-05
4.16661e-05
4.66728e-05
6.43258e-05
6.55363e-05
6.57231e-05
6.59899e-05
6.63895e-05
6.67549e-05
6.70034e-05
6.71438e-05
6.71999e-05
6.72774e-05
6.74316e-05
6.76542e-05
6.79228e-05
6.82084e-05
6.85092e-05
6.88363e-05
6.92148e-05
6.96071e-05
7.00209e-05
7.04144e-05
7.07938e-05
7.1133e-05
7.14279e-05
7.16756e-05
7.1911e-05
7.21325e-05
7.23255e-05
7.24653e-05
7.25851e-05
7.2727e-05
7.29035e-05
7.30805e-05
7.31965e-05
7.32498e-05
7.33163e-05
7.33901e-05
7.34017e-05
7.35141e-05
7.38617e-05
7.40961e-05
7.40746e-05
7.40079e-05
7.38635e-05
7.3553e-05
7.30966e-05
7.25232e-05
7.17982e-05
7.0878e-05
6.98399e-05
6.87292e-05
6.74683e-05
6.6001e-05
6.43196e-05
6.24215e-05
6.03407e-05
5.82096e-05
5.60627e-05
5.39316e-05
5.1854e-05
4.98497e-05
4.78566e-05
4.58814e-05
4.42278e-05
4.27321e-05
4.15155e-05
4.04298e-05
4.14586e-05
4.12546e-05
4.6149e-05
6.02364e-05
6.12465e-05
6.12129e-05
6.12384e-05
6.14451e-05
6.17366e-05
6.2049e-05
6.23399e-05
6.25724e-05
6.27535e-05
6.29206e-05
6.31064e-05
6.33262e-05
6.35788e-05
6.38559e-05
6.4155e-05
6.4486e-05
6.48447e-05
6.52314e-05
6.56302e-05
6.60298e-05
6.64184e-05
6.67905e-05
6.71385e-05
6.74665e-05
6.77784e-05
6.80692e-05
6.83357e-05
6.85804e-05
6.88107e-05
6.90342e-05
6.92409e-05
6.94103e-05
6.95368e-05
6.96404e-05
6.97195e-05
6.9703e-05
6.97637e-05
7.00432e-05
7.02102e-05
7.01418e-05
6.99899e-05
6.97517e-05
6.93873e-05
6.88896e-05
6.82759e-05
6.75421e-05
6.66684e-05
6.56721e-05
6.4577e-05
6.33622e-05
6.19969e-05
6.04678e-05
5.87807e-05
5.69633e-05
5.50789e-05
5.31736e-05
5.12737e-05
4.93982e-05
4.75865e-05
4.58181e-05
4.40894e-05
4.26273e-05
4.12481e-05
4.02572e-05
3.94987e-05
4.08901e-05
4.07146e-05
4.67696e-05
5.59485e-05
5.70743e-05
5.71064e-05
5.70973e-05
5.72043e-05
5.73857e-05
5.76238e-05
5.7894e-05
5.81662e-05
5.84222e-05
5.86602e-05
5.88881e-05
5.91179e-05
5.93591e-05
5.96161e-05
5.98915e-05
6.01881e-05
6.05079e-05
6.08502e-05
6.12116e-05
6.15859e-05
6.19655e-05
6.2343e-05
6.27116e-05
6.3069e-05
6.34153e-05
6.37475e-05
6.40617e-05
6.43563e-05
6.46314e-05
6.48867e-05
6.51185e-05
6.53172e-05
6.54764e-05
6.56055e-05
6.56958e-05
6.56792e-05
6.57279e-05
6.59623e-05
6.60828e-05
6.59992e-05
6.58302e-05
6.55744e-05
6.52163e-05
6.47489e-05
6.41739e-05
6.34912e-05
6.26925e-05
6.17819e-05
6.07676e-05
5.96447e-05
5.83988e-05
5.70242e-05
5.55275e-05
5.39311e-05
5.22666e-05
5.0579e-05
4.88777e-05
4.72016e-05
4.55672e-05
4.39837e-05
4.24487e-05
4.11625e-05
3.99413e-05
3.91982e-05
3.88248e-05
4.03982e-05
4.02028e-05
4.61655e-05
5.16365e-05
5.28539e-05
5.30387e-05
5.31317e-05
5.32742e-05
5.34395e-05
5.36339e-05
5.38572e-05
5.41004e-05
5.43549e-05
5.46139e-05
5.48723e-05
5.51284e-05
5.53844e-05
5.56439e-05
5.59112e-05
5.61896e-05
5.64821e-05
5.67896e-05
5.71122e-05
5.74477e-05
5.77926e-05
5.81428e-05
5.8494e-05
5.88426e-05
5.91858e-05
5.95203e-05
5.98427e-05
6.015e-05
6.04401e-05
6.07097e-05
6.09551e-05
6.11698e-05
6.13493e-05
6.14984e-05
6.16007e-05
6.15975e-05
6.16626e-05
6.18804e-05
6.19801e-05
6.19072e-05
6.17555e-05
6.15236e-05
6.12033e-05
6.07892e-05
6.02779e-05
5.96693e-05
5.89596e-05
5.81506e-05
5.72412e-05
5.62323e-05
5.51169e-05
5.38957e-05
5.25735e-05
5.11687e-05
4.96981e-05
4.82052e-05
4.66824e-05
4.51958e-05
4.37163e-05
4.23112e-05
4.09307e-05
3.9847e-05
3.87567e-05
3.83367e-05
3.82021e-05
3.98527e-05
3.95627e-05
4.58146e-05
4.76143e-05
4.87934e-05
4.90577e-05
4.92447e-05
4.94631e-05
4.96757e-05
4.98864e-05
5.01019e-05
5.03246e-05
5.0558e-05
5.08039e-05
5.10605e-05
5.13237e-05
5.15904e-05
5.18595e-05
5.21314e-05
5.24078e-05
5.26906e-05
5.29812e-05
5.32804e-05
5.35882e-05
5.39038e-05
5.42253e-05
5.45508e-05
5.48775e-05
5.52027e-05
5.55236e-05
5.5837e-05
5.61395e-05
5.64278e-05
5.66984e-05
5.69474e-05
5.71698e-05
5.73617e-05
5.75259e-05
5.76406e-05
5.76603e-05
5.77606e-05
5.79807e-05
5.8075e-05
5.80279e-05
5.79107e-05
5.77214e-05
5.7454e-05
5.71043e-05
5.66677e-05
5.61434e-05
5.55276e-05
5.48226e-05
5.4023e-05
5.31328e-05
5.2145e-05
5.10675e-05
4.99e-05
4.8663e-05
4.73625e-05
4.60435e-05
4.46813e-05
4.33714e-05
4.20256e-05
4.08016e-05
3.95526e-05
3.87049e-05
3.77235e-05
3.76943e-05
3.762e-05
3.94451e-05
3.91231e-05
4.54597e-05
4.40285e-05
4.50969e-05
4.53542e-05
4.55669e-05
4.58245e-05
4.60799e-05
4.63256e-05
4.65623e-05
4.67916e-05
4.702e-05
4.72548e-05
4.74996e-05
4.77543e-05
4.8017e-05
4.82857e-05
4.85591e-05
4.88367e-05
4.91185e-05
4.94048e-05
4.96958e-05
4.99915e-05
5.02919e-05
5.05963e-05
5.09036e-05
5.12124e-05
5.15209e-05
5.18268e-05
5.21278e-05
5.24207e-05
5.27027e-05
5.29702e-05
5.322e-05
5.3447e-05
5.36484e-05
5.38259e-05
5.39542e-05
5.40004e-05
5.41412e-05
5.43695e-05
5.44646e-05
5.44487e-05
5.43717e-05
5.42307e-05
5.40202e-05
5.37363e-05
5.33741e-05
5.29323e-05
5.2406e-05
5.17974e-05
5.11009e-05
5.03215e-05
4.94513e-05
4.85037e-05
4.74723e-05
4.6385e-05
4.52341e-05
4.40747e-05
4.28586e-05
4.17169e-05
4.04901e-05
3.94584e-05
3.83323e-05
3.77414e-05
3.68623e-05
3.72273e-05
3.71681e-05
3.94486e-05
3.92125e-05
4.89834e-05
4.08396e-05
4.17946e-05
4.201e-05
4.22002e-05
4.24496e-05
4.27113e-05
4.29724e-05
4.3227e-05
4.34712e-05
4.37081e-05
4.39441e-05
4.4184e-05
4.44303e-05
4.46837e-05
4.4944e-05
4.5211e-05
4.5484e-05
4.57626e-05
4.60462e-05
4.63343e-05
4.66263e-05
4.69217e-05
4.72198e-05
4.75198e-05
4.78207e-05
4.81211e-05
4.84193e-05
4.87134e-05
4.90012e-05
4.92799e-05
4.95468e-05
4.97989e-05
5.00315e-05
5.02427e-05
5.04336e-05
5.05761e-05
5.06499e-05
5.08314e-05
5.10706e-05
5.11703e-05
5.11876e-05
5.11513e-05
5.10573e-05
5.09006e-05
5.06772e-05
5.03824e-05
5.00146e-05
4.95692e-05
4.90467e-05
4.84435e-05
4.77637e-05
4.70018e-05
4.61716e-05
4.5265e-05
4.43157e-05
4.33031e-05
4.22942e-05
4.12165e-05
4.02341e-05
3.91222e-05
3.829e-05
3.72868e-05
3.69453e-05
3.61941e-05
3.69387e-05
3.70792e-05
4.00515e-05
4.12649e-05
5.68249e-05
3.79518e-05
3.88208e-05
3.90013e-05
3.91601e-05
3.93806e-05
3.96221e-05
3.98729e-05
4.01258e-05
4.03742e-05
4.06175e-05
4.08586e-05
4.11006e-05
4.13454e-05
4.15942e-05
4.18478e-05
4.21072e-05
4.23728e-05
4.26447e-05
4.29227e-05
4.32062e-05
4.34947e-05
4.37872e-05
4.40829e-05
4.43809e-05
4.468e-05
4.4979e-05
4.52762e-05
4.55703e-05
4.58589e-05
4.614e-05
4.6411e-05
4.66693e-05
4.69106e-05
4.71344e-05
4.73396e-05
4.74973e-05
4.76031e-05
4.78216e-05
4.80683e-05
4.81761e-05
4.8224e-05
4.82238e-05
4.81712e-05
4.80615e-05
4.78912e-05
4.76558e-05
4.73538e-05
4.69812e-05
4.65375e-05
4.60211e-05
4.54335e-05
4.47754e-05
4.40562e-05
4.32715e-05
4.24544e-05
4.15751e-05
4.07099e-05
3.97643e-05
3.89272e-05
3.79359e-05
3.72951e-05
3.64253e-05
3.63295e-05
3.57794e-05
3.70558e-05
3.76013e-05
4.24437e-05
4.51713e-05
4.78271e-05
3.5279e-05
3.60868e-05
3.62513e-05
3.6391e-05
3.65866e-05
3.68036e-05
3.70331e-05
3.72702e-05
3.7509e-05
3.77479e-05
3.79879e-05
3.82303e-05
3.84754e-05
3.87234e-05
3.89747e-05
3.92301e-05
3.94904e-05
3.97563e-05
4.00281e-05
4.03057e-05
4.05889e-05
4.0877e-05
4.11694e-05
4.14651e-05
4.17631e-05
4.20621e-05
4.23605e-05
4.2657e-05
4.29493e-05
4.32357e-05
4.35137e-05
4.37808e-05
4.40331e-05
4.42711e-05
4.44912e-05
4.46639e-05
4.48092e-05
4.50578e-05
4.5304e-05
4.5427e-05
4.55039e-05
4.55379e-05
4.55247e-05
4.54599e-05
4.53409e-05
4.51625e-05
4.49246e-05
4.46219e-05
4.42556e-05
4.3824e-05
4.33282e-05
4.27736e-05
4.21647e-05
4.15021e-05
4.08131e-05
4.0061e-05
3.93297e-05
3.85039e-05
3.7796e-05
3.69402e-05
3.64633e-05
3.58106e-05
3.59285e-05
3.58906e-05
3.78114e-05
4.00715e-05
4.681e-05
5.24922e-05
4.15222e-05
3.27925e-05
3.35499e-05
3.37091e-05
3.38417e-05
3.40235e-05
3.42234e-05
3.44347e-05
3.46543e-05
3.48781e-05
3.51052e-05
3.53368e-05
3.55735e-05
3.58151e-05
3.60609e-05
3.63105e-05
3.6564e-05
3.68218e-05
3.70843e-05
3.7352e-05
3.76251e-05
3.79034e-05
3.81869e-05
3.8475e-05
3.87673e-05
3.90627e-05
3.93603e-05
3.96588e-05
3.99567e-05
4.02522e-05
4.05435e-05
4.08284e-05
4.11043e-05
4.1368e-05
4.16204e-05
4.18552e-05
4.20444e-05
4.22345e-05
4.25093e-05
4.27527e-05
4.28987e-05
4.30074e-05
4.30787e-05
4.31071e-05
4.30896e-05
4.30232e-05
4.29024e-05
4.27292e-05
4.24951e-05
4.22078e-05
4.18595e-05
4.146e-05
4.10077e-05
4.05115e-05
3.99668e-05
3.93985e-05
3.87607e-05
3.81496e-05
3.74236e-05
3.68498e-05
3.61362e-05
3.5872e-05
3.55292e-05
3.60116e-05
3.68491e-05
4.03163e-05
4.53128e-05
5.05898e-05
4.28593e-05
4.12688e-05
3.04806e-05
3.11898e-05
3.13455e-05
3.14753e-05
3.16497e-05
3.18399e-05
3.20395e-05
3.22464e-05
3.24575e-05
3.26726e-05
3.28934e-05
3.31209e-05
3.33551e-05
3.35953e-05
3.38408e-05
3.40913e-05
3.43467e-05
3.46073e-05
3.48729e-05
3.51437e-05
3.54198e-05
3.57008e-05
3.59867e-05
3.6277e-05
3.65711e-05
3.68682e-05
3.71673e-05
3.74672e-05
3.77663e-05
3.80632e-05
3.83558e-05
3.86416e-05
3.89183e-05
3.91869e-05
3.94371e-05
3.96479e-05
3.98866e-05
4.01856e-05
4.04302e-05
4.06061e-05
4.07491e-05
4.08598e-05
4.09302e-05
4.09607e-05
4.09456e-05
4.08825e-05
4.07735e-05
4.06088e-05
4.04036e-05
4.01393e-05
3.98419e-05
3.94876e-05
3.91053e-05
3.86633e-05
3.82042e-05
3.76612e-05
3.71546e-05
3.65316e-05
3.61225e-05
3.56123e-05
3.56971e-05
3.58053e-05
3.69793e-05
3.96441e-05
4.59333e-05
4.78394e-05
3.88595e-05
3.58785e-05
3.18793e-05
2.8351e-05
2.90136e-05
2.91643e-05
2.92909e-05
2.94591e-05
2.96422e-05
2.98341e-05
3.00326e-05
3.02351e-05
3.04414e-05
3.06535e-05
3.08726e-05
3.1099e-05
3.13324e-05
3.15722e-05
3.18183e-05
3.20704e-05
3.23286e-05
3.25927e-05
3.28626e-05
3.31382e-05
3.34193e-05
3.37057e-05
3.39971e-05
3.42928e-05
3.45925e-05
3.48952e-05
3.52e-05
3.55055e-05
3.58107e-05
3.61134e-05
3.64116e-05
3.67036e-05
3.69897e-05
3.72562e-05
3.74918e-05
3.77789e-05
3.80982e-05
3.83445e-05
3.85524e-05
3.87295e-05
3.88808e-05
3.89932e-05
3.90743e-05
3.91112e-05
3.91104e-05
3.90669e-05
3.89777e-05
3.88557e-05
3.86778e-05
3.84803e-05
3.82136e-05
3.79363e-05
3.75717e-05
3.72128e-05
3.67485e-05
3.63636e-05
3.5904e-05
3.57333e-05
3.5611e-05
3.61669e-05
3.70528e-05
3.97902e-05
4.58651e-05
4.38727e-05
3.67872e-05
3.11721e-05
3.14485e-05
2.87681e-05
2.63845e-05
2.70039e-05
2.71496e-05
2.72726e-05
2.74344e-05
2.76107e-05
2.77957e-05
2.79875e-05
2.81835e-05
2.83836e-05
2.85894e-05
2.88022e-05
2.90225e-05
2.92502e-05
2.94849e-05
2.97266e-05
2.99751e-05
3.02307e-05
3.04931e-05
3.07623e-05
3.10381e-05
3.13204e-05
3.16089e-05
3.19033e-05
3.22031e-05
3.2508e-05
3.28171e-05
3.31296e-05
3.34446e-05
3.3761e-05
3.40769e-05
3.43906e-05
3.47012e-05
3.50074e-05
3.52923e-05
3.55639e-05
3.58947e-05
3.62307e-05
3.64935e-05
3.67374e-05
3.69508e-05
3.71455e-05
3.73006e-05
3.74352e-05
3.7524e-05
3.759e-05
3.76101e-05
3.76015e-05
3.75548e-05
3.74637e-05
3.73481e-05
3.71601e-05
3.69683e-05
3.66747e-05
3.64249e-05
3.60728e-05
3.59062e-05
3.57199e-05
3.5943e-05
3.64e-05
3.75912e-05
4.02146e-05
4.45345e-05
3.96478e-05
3.31908e-05
2.85796e-05
2.70866e-05
2.55951e-05
2.68931e-05
2.459e-05
2.51703e-05
2.53119e-05
2.54316e-05
2.55872e-05
2.57566e-05
2.59347e-05
2.61197e-05
2.63094e-05
2.65036e-05
2.67037e-05
2.6911e-05
2.7126e-05
2.73486e-05
2.75787e-05
2.78164e-05
2.80616e-05
2.83145e-05
2.85752e-05
2.88437e-05
2.912e-05
2.94038e-05
2.96951e-05
2.99936e-05
3.02989e-05
3.06107e-05
3.09282e-05
3.12508e-05
3.15774e-05
3.19072e-05
3.22379e-05
3.25688e-05
3.28988e-05
3.32247e-05
3.353e-05
3.38481e-05
3.42089e-05
3.45496e-05
3.48394e-05
3.512e-05
3.53727e-05
3.56151e-05
3.58193e-05
3.60137e-05
3.61612e-05
3.62995e-05
3.63857e-05
3.64588e-05
3.64785e-05
3.6471e-05
3.64184e-05
3.63165e-05
3.62056e-05
3.60325e-05
3.59468e-05
3.58371e-05
3.60124e-05
3.62081e-05
3.69985e-05
3.80731e-05
4.09376e-05
4.0663e-05
3.52063e-05
2.92482e-05
2.5996e-05
2.29439e-05
2.1938e-05
2.18818e-05
2.36876e-05
2.29409e-05
2.34856e-05
2.3624e-05
2.37414e-05
2.38919e-05
2.40554e-05
2.42273e-05
2.44062e-05
2.459e-05
2.47785e-05
2.49731e-05
2.5175e-05
2.53847e-05
2.56023e-05
2.58278e-05
2.60611e-05
2.63024e-05
2.65521e-05
2.68101e-05
2.70768e-05
2.73521e-05
2.7636e-05
2.79285e-05
2.82296e-05
2.85388e-05
2.8856e-05
2.91807e-05
2.95125e-05
2.98506e-05
3.01943e-05
3.05417e-05
3.08927e-05
3.12458e-05
3.15944e-05
3.19282e-05
3.23028e-05
3.27001e-05
3.30609e-05
3.33956e-05
3.37236e-05
3.40262e-05
3.43208e-05
3.4581e-05
3.48336e-05
3.50442e-05
3.52461e-05
3.53981e-05
3.55375e-05
3.56224e-05
3.56925e-05
3.57186e-05
3.57416e-05
3.57725e-05
3.58332e-05
3.60172e-05
3.6289e-05
3.67595e-05
3.74817e-05
3.87024e-05
4.15231e-05
3.63354e-05
3.07741e-05
2.52713e-05
2.26035e-05
2.05694e-05
1.88841e-05
1.86736e-05
1.92764e-05
2.17158e-05
2.14694e-05
2.19808e-05
2.21158e-05
2.22309e-05
2.23768e-05
2.25351e-05
2.27015e-05
2.28749e-05
2.30534e-05
2.32369e-05
2.34265e-05
2.36236e-05
2.38286e-05
2.40417e-05
2.4263e-05
2.44925e-05
2.47305e-05
2.49774e-05
2.52333e-05
2.54986e-05
2.57734e-05
2.6058e-05
2.63524e-05
2.66568e-05
2.69709e-05
2.7295e-05
2.76282e-05
2.79708e-05
2.83215e-05
2.86801e-05
2.90449e-05
2.94163e-05
2.97922e-05
3.01641e-05
3.05382e-05
3.09551e-05
3.13698e-05
3.17539e-05
3.21311e-05
3.25033e-05
3.28614e-05
3.32094e-05
3.35376e-05
3.38475e-05
3.41331e-05
3.43909e-05
3.46237e-05
3.48269e-05
3.50163e-05
3.51938e-05
3.53904e-05
3.56204e-05
3.59182e-05
3.62799e-05
3.67526e-05
3.71663e-05
3.79233e-05
3.90477e-05
3.73835e-05
3.14678e-05
2.62172e-05
2.1267e-05
1.8878e-05
1.73846e-05
1.66829e-05
1.61423e-05
1.67632e-05
1.78711e-05
2.03527e-05
2.01225e-05
2.06038e-05
2.0736e-05
2.0849e-05
2.09905e-05
2.11439e-05
2.13055e-05
2.1474e-05
2.16479e-05
2.18268e-05
2.2012e-05
2.22044e-05
2.24049e-05
2.26136e-05
2.28306e-05
2.30561e-05
2.32904e-05
2.3534e-05
2.37871e-05
2.40503e-05
2.43237e-05
2.46078e-05
2.49028e-05
2.52092e-05
2.5527e-05
2.5857e-05
2.61988e-05
2.65532e-05
2.69193e-05
2.72972e-05
2.76859e-05
2.80858e-05
2.84924e-05
2.88966e-05
2.93361e-05
2.98065e-05
3.02596e-05
3.07001e-05
3.114e-05
3.15655e-05
3.1988e-05
3.23833e-05
3.27789e-05
3.31303e-05
3.34953e-05
3.38052e-05
3.41521e-05
3.44563e-05
3.48293e-05
3.51968e-05
3.56592e-05
3.61223e-05
3.6619e-05
3.70082e-05
3.74043e-05
3.7694e-05
3.72538e-05
3.13178e-05
2.62992e-05
2.15042e-05
1.72491e-05
1.61125e-05
1.4636e-05
1.37584e-05
1.39922e-05
1.39892e-05
1.46017e-05
1.60281e-05
1.85297e-05
1.89839e-05
1.94366e-05
1.95651e-05
1.96758e-05
1.98131e-05
1.99618e-05
2.01185e-05
2.02825e-05
2.04521e-05
2.0627e-05
2.08083e-05
2.09971e-05
2.11941e-05
2.13996e-05
2.16136e-05
2.18366e-05
2.2069e-05
2.23111e-05
2.25636e-05
2.28271e-05
2.31019e-05
2.33888e-05
2.36879e-05
2.39998e-05
2.43247e-05
2.4663e-05
2.50147e-05
2.53803e-05
2.576e-05
2.61534e-05
2.65614e-05
2.6983e-05
2.74138e-05
2.78549e-05
2.83378e-05
2.88224e-05
2.93048e-05
2.97852e-05
3.02823e-05
3.07601e-05
3.12551e-05
3.17126e-05
3.21998e-05
3.26309e-05
3.31301e-05
3.35658e-05
3.41126e-05
3.46036e-05
3.52065e-05
3.57493e-05
3.62418e-05
3.66057e-05
3.66263e-05
3.63082e-05
3.51147e-05
3.01332e-05
2.52046e-05
2.04557e-05
1.69498e-05
1.3713e-05
1.31833e-05
1.14364e-05
1.08385e-05
1.21357e-05
1.31253e-05
1.40449e-05
1.55111e-05
1.69159e-05
1.97687e-05
1.79212e-05
1.8351e-05
1.84782e-05
1.8587e-05
1.87202e-05
1.88643e-05
1.90163e-05
1.91754e-05
1.93401e-05
1.95104e-05
1.96871e-05
1.98714e-05
2.0064e-05
2.02652e-05
2.04754e-05
2.06948e-05
2.09239e-05
2.11633e-05
2.14138e-05
2.16759e-05
2.19506e-05
2.22388e-05
2.25417e-05
2.286e-05
2.31953e-05
2.35475e-05
2.39189e-05
2.43076e-05
2.47169e-05
2.51432e-05
2.55932e-05
2.60546e-05
2.65362e-05
2.70546e-05
2.7617e-05
2.8166e-05
2.87387e-05
2.92959e-05
2.98794e-05
3.04351e-05
3.10239e-05
3.15837e-05
3.21897e-05
3.27625e-05
3.3408e-05
3.40029e-05
3.46466e-05
3.5145e-05
3.5581e-05
3.56774e-05
3.52441e-05
3.42856e-05
3.20825e-05
2.74757e-05
2.28412e-05
1.88095e-05
1.51613e-05
1.23192e-05
1.06238e-05
1.01173e-05
9.6371e-06
9.55095e-06
1.02515e-05
1.20643e-05
1.22037e-05
1.28609e-05
1.3875e-05
1.49268e-05
1.64219e-05
1.71697e-05
1.75764e-05
1.77007e-05
1.78094e-05
1.79405e-05
1.80816e-05
1.82304e-05
1.83864e-05
1.85482e-05
1.87154e-05
1.88892e-05
1.90706e-05
1.92604e-05
1.94592e-05
1.96672e-05
1.9885e-05
2.01132e-05
2.03522e-05
2.06029e-05
2.08655e-05
2.1141e-05
2.14293e-05
2.17327e-05
2.20505e-05
2.23868e-05
2.27393e-05
2.31151e-05
2.35083e-05
2.393e-05
2.437e-05
2.48437e-05
2.53265e-05
2.58524e-05
2.63981e-05
2.69766e-05
2.75571e-05
2.81974e-05
2.88331e-05
2.95388e-05
3.02329e-05
3.09984e-05
3.17449e-05
3.2518e-05
3.32063e-05
3.38061e-05
3.41974e-05
3.43324e-05
3.39973e-05
3.30695e-05
3.16204e-05
2.81284e-05
2.3785e-05
1.98591e-05
1.62811e-05
1.31578e-05
1.08824e-05
8.96037e-06
7.80519e-06
7.621e-06
8.03665e-06
9.67206e-06
1.03464e-05
1.0989e-05
1.13291e-05
1.27602e-05
1.3438e-05
1.42822e-05
1.4433e-05
1.58634e-05
1.63438e-05
1.6735e-05
1.68591e-05
1.69645e-05
1.70906e-05
1.7227e-05
1.73713e-05
1.7523e-05
1.76806e-05
1.7844e-05
1.8014e-05
1.81916e-05
1.83777e-05
1.8573e-05
1.8778e-05
1.89935e-05
1.92205e-05
1.94599e-05
1.97137e-05
1.99826e-05
2.0269e-05
2.05721e-05
2.08957e-05
2.12366e-05
2.16018e-05
2.19836e-05
2.23946e-05
2.28219e-05
2.32892e-05
2.37752e-05
2.43015e-05
2.48628e-05
2.55088e-05
2.61794e-05
2.69036e-05
2.76518e-05
2.84637e-05
2.9261e-05
3.01075e-05
3.08818e-05
3.16108e-05
3.22022e-05
3.25624e-05
3.26149e-05
3.22402e-05
3.1382e-05
3.00223e-05
2.70067e-05
2.29696e-05
1.92901e-05
1.59957e-05
1.31278e-05
1.09631e-05
8.76267e-06
7.41973e-06
6.4518e-06
5.74322e-06
5.70815e-06
6.39586e-06
7.03392e-06
8.72328e-06
9.39859e-06
1.06154e-05
1.07764e-05
1.19133e-05
1.17305e-05
1.14963e-05
1.15646e-05
1.35622e-05
1.62619e-05
1.66319e-05
1.67522e-05
1.6859e-05
1.69842e-05
1.71174e-05
1.72581e-05
1.74063e-05
1.75609e-05
1.77214e-05
1.78887e-05
1.80638e-05
1.82475e-05
1.84401e-05
1.8642e-05
1.88535e-05
1.9075e-05
1.9307e-05
1.95506e-05
1.98067e-05
2.00786e-05
2.03669e-05
2.06779e-05
2.10099e-05
2.13749e-05
2.17641e-05
2.21941e-05
2.26487e-05
2.31558e-05
2.36906e-05
2.42793e-05
2.48977e-05
2.55607e-05
2.62592e-05
2.69883e-05
2.77302e-05
2.84259e-05
2.90377e-05
2.95016e-05
2.97302e-05
2.96629e-05
2.9345e-05
2.86242e-05
2.70509e-05
2.33212e-05
1.98383e-05
1.68038e-05
1.4097e-05
1.17835e-05
9.8308e-06
8.37611e-06
6.97918e-06
6.02857e-06
5.06567e-06
4.68108e-06
4.69838e-06
4.80724e-06
4.88782e-06
5.55678e-06
5.74147e-06
6.38545e-06
6.22065e-06
6.49384e-06
6.95927e-06
7.71747e-06
7.71192e-06
7.38637e-06
7.43021e-06
8.20616e-06
1.55721e-05
1.59617e-05
1.60976e-05
1.62114e-05
1.63441e-05
1.64882e-05
1.66412e-05
1.68021e-05
1.69701e-05
1.71455e-05
1.73295e-05
1.75239e-05
1.77296e-05
1.79485e-05
1.81812e-05
1.84302e-05
1.86962e-05
1.89822e-05
1.92884e-05
1.96167e-05
1.99669e-05
2.03388e-05
2.07381e-05
2.11719e-05
2.16573e-05
2.21827e-05
2.2755e-05
2.33501e-05
2.39772e-05
2.46282e-05
2.53138e-05
2.59697e-05
2.65623e-05
2.70643e-05
2.74257e-05
2.76917e-05
2.78337e-05
2.77481e-05
2.53223e-05
2.24873e-05
1.98224e-05
1.71306e-05
1.47458e-05
1.26078e-05
1.073e-05
9.19479e-06
7.96343e-06
6.93562e-06
6.04686e-06
5.30774e-06
4.78586e-06
4.23358e-06
3.80053e-06
3.6003e-06
3.3285e-06
3.13829e-06
3.07174e-06
3.09977e-06
2.96985e-06
2.96653e-06
2.81336e-06
2.67517e-06
2.90592e-06
3.13906e-06
3.43298e-06
3.77889e-06
3.46483e-06
3.26294e-06
3.45813e-06
1.78966e-05
1.82697e-05
1.84091e-05
1.85391e-05
1.86848e-05
1.8838e-05
1.89988e-05
1.91698e-05
1.93446e-05
1.95274e-05
1.97167e-05
1.99129e-05
2.01393e-05
2.0357e-05
2.05998e-05
2.08528e-05
2.11377e-05
2.14272e-05
2.1722e-05
2.20324e-05
2.23774e-05
2.27411e-05
2.31256e-05
2.35135e-05
2.38617e-05
2.4169e-05
2.4425e-05
2.37055e-05
2.28423e-05
2.17351e-05
2.05773e-05
1.92633e-05
1.78592e-05
1.63844e-05
1.49382e-05
1.35805e-05
1.22406e-05
1.10252e-05
9.87346e-06
8.85992e-06
7.89099e-06
7.06005e-06
6.33488e-06
5.71058e-06
5.09379e-06
4.70327e-06
4.36655e-06
3.96596e-06
3.5768e-06
3.27746e-06
2.99268e-06
2.70668e-06
2.41379e-06
2.15247e-06
1.9422e-06
1.67961e-06
1.4229e-06
1.16003e-06
9.92709e-07
8.37135e-07
8.16703e-07
9.58406e-07
1.24145e-06
1.36205e-06
1.4826e-06
1.5425e-06
1.39187e-06
9.05067e-07
9.42889e-07
9.32935e-06
9.16744e-06
9.02258e-06
8.88801e-06
8.75943e-06
8.63602e-06
8.51621e-06
8.40057e-06
8.28783e-06
8.1794e-06
8.07201e-06
7.97116e-06
7.86604e-06
7.77278e-06
7.67166e-06
7.56996e-06
7.46734e-06
7.37184e-06
7.2668e-06
7.16143e-06
7.05343e-06
6.93253e-06
6.8472e-06
6.73325e-06
6.63954e-06
6.53459e-06
6.43788e-06
6.34698e-06
6.26641e-06
6.21298e-06
6.15816e-06
6.10011e-06
6.04728e-06
5.98701e-06
5.9121e-06
5.83704e-06
5.73307e-06
5.57885e-06
5.38541e-06
5.17757e-06
4.95025e-06
4.70681e-06
4.41673e-06
4.03177e-06
3.64006e-06
3.24384e-06
2.84623e-06
2.4288e-06
1.98246e-06
1.51535e-06
1.10829e-06
7.94393e-07
5.66531e-07
4.0968e-07
3.03018e-07
2.2928e-07
1.81334e-07
1.52042e-07
1.36549e-07
1.28154e-07
1.37318e-07
1.56146e-07
2.12562e-07
2.91008e-07
3.21216e-07
2.93502e-07
1.88149e-07
1.04733e-07
1.07893e-07
3.24462e-06
3.35837e-06
3.47512e-06
3.59356e-06
3.71477e-06
3.83721e-06
3.96196e-06
4.08756e-06
4.21499e-06
4.34285e-06
4.4721e-06
4.60132e-06
4.73143e-06
4.86119e-06
4.99119e-06
5.12041e-06
5.24945e-06
5.37704e-06
5.5037e-06
5.62919e-06
5.75243e-06
5.87352e-06
5.99305e-06
6.11289e-06
6.23028e-06
6.31188e-06
6.41809e-06
6.43121e-06
6.60827e-06
6.68243e-06
6.65477e-06
6.57111e-06
6.4701e-06
6.34795e-06
6.20013e-06
6.02222e-06
5.81049e-06
5.56109e-06
5.27111e-06
4.93941e-06
4.56691e-06
4.15743e-06
3.71723e-06
3.25505e-06
2.78384e-06
2.31853e-06
1.87623e-06
1.46945e-06
1.10525e-06
7.41408e-07
4.35571e-07
2.22973e-07
1.01388e-07
4.30587e-08
1.83709e-08
8.76061e-09
6.33498e-09
8.00501e-09
1.01135e-08
1.10372e-08
1.1256e-08
1.13752e-08
1.26632e-08
1.86378e-08
3.23585e-08
4.42807e-08
5.36684e-08
5.00738e-08
4.0506e-08
6.67031e-05
6.58551e-05
6.45754e-05
6.50162e-05
6.47579e-05
6.47179e-05
6.49281e-05
6.56036e-05
6.58007e-05
6.45673e-05
6.44844e-05
6.42355e-05
6.36804e-05
6.4599e-05
6.51149e-05
6.77567e-05
6.50112e-05
6.47999e-05
6.6187e-05
6.62685e-05
6.43168e-05
6.45155e-05
6.70025e-05
6.67712e-05
6.80088e-05
6.84126e-05
6.79865e-05
6.72219e-05
6.84629e-05
7.0496e-05
6.98741e-05
6.96689e-05
7.0213e-05
7.16908e-05
7.12113e-05
7.18584e-05
7.27808e-05
7.32122e-05
7.36668e-05
7.69098e-05
7.67377e-05
7.48799e-05
7.65019e-05
7.72126e-05
7.69639e-05
7.71619e-05
7.78312e-05
7.7613e-05
7.9697e-05
8.35724e-05
8.54517e-05
8.60885e-05
8.45363e-05
8.1144e-05
7.80589e-05
7.79234e-05
7.94767e-05
8.15429e-05
8.05329e-05
6.19967e-05
6.0757e-05
6.12016e-05
6.1158e-05
6.12023e-05
6.13052e-05
6.12687e-05
6.108e-05
6.06436e-05
6.03808e-05
6.03185e-05
6.03221e-05
6.07307e-05
6.11631e-05
6.19596e-05
6.14672e-05
6.01665e-05
6.07078e-05
6.16325e-05
6.08742e-05
5.99854e-05
6.07565e-05
6.21248e-05
6.2259e-05
6.30284e-05
6.29922e-05
6.29948e-05
6.24235e-05
6.36759e-05
6.47864e-05
6.43326e-05
6.45201e-05
6.5316e-05
6.61344e-05
6.61801e-05
6.65839e-05
6.74987e-05
6.78756e-05
6.80983e-05
6.95929e-05
7.05217e-05
7.01003e-05
7.04498e-05
7.12095e-05
7.19573e-05
7.18585e-05
7.23669e-05
7.18653e-05
7.23251e-05
7.44284e-05
7.63781e-05
7.81394e-05
7.89092e-05
7.81361e-05
7.58411e-05
7.46464e-05
7.37908e-05
7.45026e-05
7.38063e-05
5.7748e-05
5.67955e-05
5.72942e-05
5.72114e-05
5.72112e-05
5.7113e-05
5.68763e-05
5.66237e-05
5.64203e-05
5.63936e-05
5.6423e-05
5.66116e-05
5.6974e-05
5.71184e-05
5.70802e-05
5.62751e-05
5.62225e-05
5.67505e-05
5.69611e-05
5.61922e-05
5.58868e-05
5.68371e-05
5.75198e-05
5.78934e-05
5.83191e-05
5.81502e-05
5.82309e-05
5.79852e-05
5.89485e-05
5.97203e-05
5.9438e-05
5.98737e-05
6.04619e-05
6.10277e-05
6.12712e-05
6.16638e-05
6.23664e-05
6.28854e-05
6.31872e-05
6.39584e-05
6.50575e-05
6.54136e-05
6.53446e-05
6.57045e-05
6.65564e-05
6.67727e-05
6.71462e-05
6.70362e-05
6.70084e-05
6.77459e-05
6.89462e-05
7.03765e-05
7.1622e-05
7.23806e-05
7.21323e-05
7.14682e-05
7.06113e-05
7.06625e-05
6.91103e-05
5.42649e-05
5.33371e-05
5.36849e-05
5.35629e-05
5.34591e-05
5.32845e-05
5.31199e-05
5.29873e-05
5.29213e-05
5.29486e-05
5.30375e-05
5.31839e-05
5.32521e-05
5.3086e-05
5.27597e-05
5.24787e-05
5.27258e-05
5.29512e-05
5.2709e-05
5.22709e-05
5.24176e-05
5.31321e-05
5.35443e-05
5.39303e-05
5.41424e-05
5.39681e-05
5.40332e-05
5.40343e-05
5.4798e-05
5.53165e-05
5.52519e-05
5.57098e-05
5.61252e-05
5.65632e-05
5.68325e-05
5.72204e-05
5.77633e-05
5.8279e-05
5.86442e-05
5.91637e-05
6.0072e-05
6.07348e-05
6.08042e-05
6.0909e-05
6.1458e-05
6.1874e-05
6.22328e-05
6.23564e-05
6.23215e-05
6.24947e-05
6.3007e-05
6.38258e-05
6.48041e-05
6.57591e-05
6.64109e-05
6.66453e-05
6.65257e-05
6.69004e-05
6.52937e-05
5.09333e-05
4.99945e-05
5.02654e-05
5.01222e-05
5.00123e-05
4.98909e-05
4.97811e-05
4.97317e-05
4.97391e-05
4.97632e-05
4.97968e-05
4.97697e-05
4.96133e-05
4.93696e-05
4.91816e-05
4.91873e-05
4.93144e-05
4.92382e-05
4.89492e-05
4.88471e-05
4.91699e-05
4.96442e-05
4.99344e-05
5.02317e-05
5.02954e-05
5.01593e-05
5.02377e-05
5.03768e-05
5.09917e-05
5.1338e-05
5.14049e-05
5.18187e-05
5.21533e-05
5.25168e-05
5.27854e-05
5.31486e-05
5.35905e-05
5.40441e-05
5.44013e-05
5.47727e-05
5.54425e-05
5.61589e-05
5.64748e-05
5.65602e-05
5.685e-05
5.72324e-05
5.75873e-05
5.78267e-05
5.79265e-05
5.7984e-05
5.81577e-05
5.85279e-05
5.90881e-05
5.97751e-05
6.04773e-05
6.10666e-05
6.14378e-05
6.22284e-05
6.1045e-05
4.76673e-05
4.67727e-05
4.70357e-05
4.69059e-05
4.68088e-05
4.6732e-05
4.66937e-05
4.66728e-05
4.66551e-05
4.66108e-05
4.65312e-05
4.63847e-05
4.61963e-05
4.60441e-05
4.59847e-05
4.59905e-05
4.59568e-05
4.57805e-05
4.56239e-05
4.56919e-05
4.60225e-05
4.63256e-05
4.65329e-05
4.67182e-05
4.66941e-05
4.66091e-05
4.67106e-05
4.69148e-05
4.7401e-05
4.76461e-05
4.77693e-05
4.81341e-05
4.84271e-05
4.87374e-05
4.89982e-05
4.9329e-05
4.97016e-05
5.00953e-05
5.04315e-05
5.07198e-05
5.11922e-05
5.1829e-05
5.2291e-05
5.2478e-05
5.2637e-05
5.29044e-05
5.32326e-05
5.3534e-05
5.37458e-05
5.38701e-05
5.39782e-05
5.41499e-05
5.44316e-05
5.48303e-05
5.53173e-05
5.58422e-05
5.62991e-05
5.72313e-05
5.64186e-05
4.46139e-05
4.3775e-05
4.40306e-05
4.39246e-05
4.3863e-05
4.38116e-05
4.37598e-05
4.37016e-05
4.36226e-05
4.35169e-05
4.33795e-05
4.3226e-05
4.30888e-05
4.30006e-05
4.29473e-05
4.29008e-05
4.27902e-05
4.26337e-05
4.25913e-05
4.27482e-05
4.2997e-05
4.31834e-05
4.33235e-05
4.34132e-05
4.33527e-05
4.33159e-05
4.34348e-05
4.36587e-05
4.40409e-05
4.42234e-05
4.43678e-05
4.46858e-05
4.4947e-05
4.52112e-05
4.54555e-05
4.57529e-05
4.60734e-05
4.64176e-05
4.67363e-05
4.69958e-05
4.73362e-05
4.78373e-05
4.83248e-05
4.86352e-05
4.88144e-05
4.90043e-05
4.92531e-05
4.95359e-05
4.9799e-05
5.00057e-05
5.01617e-05
5.03045e-05
5.04761e-05
5.07057e-05
5.10008e-05
5.13591e-05
5.17115e-05
5.25676e-05
5.19131e-05
4.17538e-05
4.09798e-05
4.12344e-05
4.11363e-05
4.10781e-05
4.10102e-05
4.09286e-05
4.0831e-05
4.07159e-05
4.05819e-05
4.04379e-05
4.03098e-05
4.02071e-05
4.01319e-05
4.00664e-05
3.99743e-05
3.98275e-05
3.97561e-05
3.97966e-05
3.99451e-05
4.01044e-05
4.02198e-05
4.03014e-05
4.03204e-05
4.02565e-05
4.02613e-05
4.03896e-05
4.06102e-05
4.0907e-05
4.10531e-05
4.12005e-05
4.14764e-05
4.17094e-05
4.19337e-05
4.2156e-05