/*--------------------------------*- C++ -*----------------------------------*\
| =========                 |                                                 |
| \\      /  F ield         | OpenFOAM: The Open Source CFD Toolbox           |
|  \\    /   O peration     | Version:  2312                                  |
|   \\  /    A nd           | Website:  www.openfoam.com                      |
|    \\/     M anipulation  |                                                 |
\*---------------------------------------------------------------------------*/
FoamFile
{
    version     2.0;
    format      ascii;
    arch        "LSB;label=32;scalar=64";
    class       volScalarField;
    location    "1700";
    object      omega;
}
// * * * * * * * * * * * * * * * * * * * * * * * * * * * * * * * * * * * * * //

dimensions      [0 0 -1 0 0 0 0];

internalField   nonuniform List<scalar> 
76025
(
0.027945
0.0279245
0.0279275
0.0279388
0.0279423
0.027965
0.027971
0.0279533
0.0279422
0.0279351
0.0279222
0.0279105
0.0279034
0.0278911
0.0279144
0.027916
0.0279494
0.0279729
0.0280024
0.0280484
0.0280829
0.0281302
0.0281721
0.0282174
0.0282916
0.0283326
0.0284386
0.0285168
0.028616
0.0287144
0.0288288
0.0288919
0.0290117
0.0290891
0.0291968
0.0292839
0.0293912
0.0295168
0.0296158
0.0297166
0.0298156
0.0299114
0.0300195
0.0301045
0.0301969
0.0302898
0.0304017
0.0305296
0.0306946
0.030881
0.0311476
0.0314625
0.0318751
0.0323391
0.0330207
0.0337184
0.0345817
0.0355624
0.0367223
0.038183
0.0396273
0.0416589
0.0438294
0.0467888
0.050579
0.0534031
0.0592264
0.063058
0.0710334
0.0282068
0.0281856
0.028189
0.0281947
0.0282142
0.0282281
0.0282296
0.028242
0.0282217
0.0282258
0.0282058
0.0281963
0.0281746
0.0281616
0.0281745
0.0281877
0.0282222
0.0282643
0.0283139
0.0283713
0.0284318
0.0284917
0.0285584
0.0286214
0.0286979
0.0287651
0.0288463
0.0289274
0.029014
0.029103
0.0291983
0.0292851
0.0293804
0.0294701
0.0295647
0.0296578
0.0297529
0.0298457
0.029936
0.0300247
0.0301191
0.0302118
0.0303063
0.0304061
0.0305191
0.0306481
0.0307961
0.0309794
0.0312037
0.0314859
0.0318209
0.0322413
0.0327279
0.0333354
0.0340329
0.0348699
0.0358664
0.0369785
0.0384464
0.0398454
0.0419157
0.0440072
0.0467175
0.0499064
0.0535653
0.0568332
0.0630239
0.0673164
0.0772962
0.0285309
0.0285244
0.028528
0.0285356
0.0285508
0.0285706
0.0285955
0.0286233
0.0286455
0.0286654
0.0286839
0.0286555
0.0286376
0.0286576
0.0286744
0.0286928
0.0287167
0.028747
0.0287862
0.0288329
0.0288874
0.0289445
0.0290077
0.0290723
0.0291426
0.0292132
0.0292869
0.0293625
0.0294414
0.0295209
0.0296038
0.0296858
0.0297696
0.0298535
0.0299402
0.0300274
0.0301184
0.0302091
0.0303014
0.0303947
0.0304954
0.030602
0.0307197
0.0308497
0.031001
0.0311747
0.031382
0.0316278
0.0319269
0.0322809
0.0327045
0.0332035
0.0337899
0.0344841
0.0352832
0.0362523
0.0373334
0.0386517
0.0401473
0.0418411
0.0440291
0.0463003
0.0492937
0.0526173
0.0566768
0.0602186
0.0670441
0.0716177
0.0817137
0.0288085
0.0288031
0.0288159
0.0288338
0.0288529
0.0288752
0.0289041
0.0289387
0.028977
0.0290184
0.0290588
0.0290945
0.0291244
0.0291576
0.0291902
0.0292216
0.0292541
0.0292888
0.0293278
0.029371
0.0294195
0.0294715
0.0295279
0.029587
0.0296498
0.0297147
0.0297824
0.0298518
0.0299242
0.0299977
0.0300739
0.0301508
0.0302304
0.0303112
0.0303963
0.0304835
0.0305778
0.0306755
0.0307792
0.0308879
0.031009
0.0311419
0.0312925
0.0314615
0.0316579
0.0318847
0.0321511
0.0324634
0.0328303
0.0332608
0.0337603
0.034345
0.0350193
0.035812
0.0367232
0.0378084
0.0390304
0.0405058
0.0421695
0.0441051
0.0465566
0.049087
0.0525118
0.0561252
0.0604449
0.0643933
0.0716946
0.076646
0.0871987
0.0293787
0.0293934
0.0294051
0.0294149
0.0294216
0.0294278
0.0294381
0.0294548
0.0294793
0.0295119
0.0295509
0.0295935
0.0296382
0.0296841
0.0297304
0.0297757
0.0298206
0.0298652
0.0299107
0.0299571
0.0300058
0.030056
0.0301091
0.0301637
0.0302215
0.030281
0.0303436
0.0304079
0.0304759
0.0305455
0.0306194
0.0306952
0.0307758
0.0308592
0.0309494
0.031044
0.0311495
0.0312615
0.031384
0.0315151
0.0316641
0.0318291
0.0320176
0.0322293
0.0324751
0.0327561
0.0330838
0.0334608
0.0338989
0.0344037
0.0349861
0.0356592
0.0364364
0.0373382
0.0383841
0.039601
0.0409943
0.0426492
0.0445113
0.046741
0.0494409
0.0522747
0.0560857
0.0598479
0.0645394
0.068876
0.0769367
0.082066
0.0953297
0.0298222
0.0298693
0.0299169
0.029962
0.030001
0.0300327
0.0300587
0.0300818
0.0301052
0.0301315
0.0301625
0.0301981
0.0302382
0.0302818
0.0303282
0.0303758
0.0304247
0.0304736
0.0305234
0.0305731
0.0306242
0.0306756
0.030729
0.0307833
0.0308405
0.0308991
0.0309615
0.0310257
0.0310949
0.0311665
0.0312441
0.0313251
0.0314134
0.0315061
0.0316084
0.0317173
0.0318409
0.0319738
0.0321214
0.0322807
0.0324633
0.0326654
0.0328961
0.0331549
0.0334538
0.0337928
0.0341846
0.0346307
0.0351453
0.0357333
0.0364089
0.0371871
0.0380812
0.039114
0.0403116
0.0416781
0.043281
0.0451166
0.047263
0.0497556
0.0527925
0.0558791
0.0601456
0.0640755
0.0692699
0.0741926
0.082994
0.0886956
0.103275
0.0304188
0.0304527
0.0304958
0.0305471
0.0306023
0.0306574
0.0307102
0.0307592
0.0308047
0.0308474
0.0308885
0.0309289
0.0309697
0.0310111
0.0310538
0.0310972
0.0311422
0.0311878
0.031235
0.0312828
0.0313327
0.0313835
0.0314371
0.0314919
0.0315506
0.0316112
0.0316769
0.0317452
0.03182
0.0318983
0.0319848
0.0320758
0.0321769
0.0322838
0.0324035
0.0325319
0.0326793
0.0328384
0.0330166
0.03321
0.0334321
0.0336768
0.0339554
0.0342667
0.0346239
0.0350258
0.0354883
0.0360094
0.0366113
0.0372918
0.0380763
0.0389738
0.0399992
0.041185
0.0425438
0.0440967
0.0459254
0.0479878
0.0504371
0.0532292
0.0565854
0.0599507
0.0647407
0.0687746
0.0747583
0.0802234
0.0899831
0.096683
0.113426
0.031146
0.0311737
0.0312068
0.0312482
0.0312968
0.0313517
0.0314112
0.0314736
0.0315373
0.0316007
0.0316627
0.0317225
0.0317799
0.0318344
0.0318869
0.031937
0.0319863
0.0320342
0.0320826
0.0321307
0.0321808
0.0322316
0.0322858
0.0323416
0.0324024
0.0324658
0.0325357
0.0326094
0.0326915
0.0327784
0.0328761
0.03298
0.0330973
0.0332221
0.0333637
0.0335164
0.0336929
0.0338833
0.0340974
0.0343301
0.034596
0.0348878
0.0352182
0.0355869
0.0360069
0.0364787
0.0370196
0.0376259
0.0383289
0.0391135
0.040026
0.0410547
0.0422317
0.0435932
0.0451323
0.0469142
0.0489948
0.0513094
0.0541124
0.0571746
0.0609147
0.0645682
0.0699921
0.0741581
0.0812179
0.0872964
0.0982082
0.106831
0.121989
0.0320108
0.0320434
0.0320771
0.0321147
0.0321563
0.0322024
0.0322538
0.0323104
0.0323718
0.032437
0.0325049
0.0325738
0.0326427
0.0327099
0.0327755
0.0328382
0.0328993
0.0329579
0.0330161
0.0330729
0.033131
0.0331894
0.0332512
0.0333149
0.0333843
0.0334571
0.033538
0.0336238
0.0337203
0.0338229
0.033939
0.0340626
0.0342028
0.0343518
0.0345213
0.0347038
0.0349147
0.0351407
0.0353952
0.0356713
0.0359858
0.0363301
0.0367187
0.0371536
0.0376451
0.0381999
0.0388307
0.0395369
0.0403557
0.0412556
0.042318
0.0434861
0.0448475
0.0464048
0.0481545
0.0502157
0.0525475
0.0551798
0.0583235
0.0617147
0.065856
0.0699092
0.0760817
0.0803951
0.088959
0.0954317
0.109
0.117808
0.142995
0.0329939
0.0330309
0.0330684
0.0331083
0.0331493
0.0331918
0.0332368
0.0332853
0.0333383
0.0333965
0.0334602
0.0335285
0.0336011
0.0336759
0.0337528
0.0338297
0.0339072
0.0339834
0.0340603
0.0341361
0.0342137
0.0342914
0.0343727
0.0344558
0.0345448
0.0346374
0.0347386
0.0348452
0.0349634
0.0350884
0.0352288
0.0353775
0.0355455
0.0357232
0.0359252
0.0361418
0.036392
0.0366583
0.036959
0.0372847
0.0376549
0.0380595
0.0385144
0.0390261
0.0395966
0.0402474
0.0409733
0.0417947
0.0427366
0.0437682
0.0450036
0.0463246
0.0479203
0.049684
0.0517034
0.0540607
0.0566795
0.0596655
0.0631923
0.0669705
0.0715648
0.0762398
0.0831345
0.0878086
0.0982659
0.105501
0.122626
0.133561
0.168558
0.03426
0.0342987
0.0343387
0.0343815
0.0344247
0.0344674
0.0345101
0.0345528
0.0345972
0.0346441
0.0346956
0.0347519
0.0348144
0.0348822
0.034956
0.0350338
0.0351164
0.0352016
0.0352906
0.0353814
0.0354761
0.0355729
0.0356748
0.0357798
0.0358919
0.0360086
0.036135
0.0362678
0.0364137
0.0365674
0.0367386
0.0369189
0.0371217
0.0373348
0.0375768
0.037835
0.0381326
0.0384465
0.0388027
0.0391858
0.039621
0.0400942
0.0406251
0.041224
0.041881
0.0426449
0.0434715
0.0444375
0.0455116
0.0467165
0.0481482
0.0496614
0.0515395
0.0535286
0.0558754
0.0585489
0.0614937
0.064908
0.0688678
0.0731259
0.0782696
0.0838619
0.0912443
0.0970724
0.109528
0.119196
0.140876
0.155736
0.221821
0.0357095
0.0357527
0.0357972
0.0358458
0.035896
0.0359467
0.0359979
0.0360488
0.0361002
0.0361525
0.0362073
0.0362649
0.0363273
0.0363945
0.0364679
0.0365467
0.036632
0.0367225
0.0368192
0.0369206
0.0370284
0.037141
0.0372609
0.0373862
0.0375207
0.0376618
0.0378145
0.0379753
0.0381514
0.0383366
0.0385423
0.0387581
0.0390002
0.0392534
0.039541
0.0398465
0.0401977
0.0405647
0.0409845
0.0414303
0.0419403
0.0424884
0.0431077
0.0438046
0.0445624
0.0454633
0.0464028
0.0475602
0.0487733
0.050219
0.0518526
0.0536243
0.0558078
0.0580533
0.0607886
0.0638015
0.0671501
0.0710913
0.0755576
0.0804067
0.0863286
0.0930077
0.100847
0.109205
0.124055
0.139704
0.165171
0.187913
0.289473
0.0375128
0.0375631
0.0376135
0.0376674
0.0377228
0.0377787
0.0378355
0.0378927
0.0379506
0.0380096
0.0380701
0.0381331
0.0381993
0.0382697
0.0383451
0.0384264
0.038514
0.0386084
0.0387102
0.0388192
0.0389365
0.0390614
0.0391959
0.0393387
0.0394931
0.0396568
0.0398351
0.0400237
0.0402309
0.0404494
0.0406922
0.0409471
0.0412326
0.041531
0.0418703
0.0422291
0.0426418
0.0430681
0.0435632
0.0440781
0.0446798
0.0453109
0.0460436
0.0468523
0.0477414
0.0488074
0.0498849
0.05129
0.0526436
0.0544216
0.0562287
0.0583706
0.0608308
0.0634273
0.0665943
0.0700218
0.0738738
0.0784981
0.0835101
0.0891956
0.0962073
0.104029
0.113279
0.125814
0.145899
0.168734
0.199283
0.251613
0.349329
0.0395355
0.0395998
0.0396638
0.0397312
0.0397995
0.0398683
0.0399375
0.0400076
0.0400783
0.0401506
0.0402243
0.0403006
0.0403795
0.0404623
0.040549
0.0406414
0.0407394
0.0408446
0.0409572
0.0410783
0.0412089
0.041349
0.0415009
0.0416633
0.0418401
0.0420286
0.042235
0.0424545
0.0426962
0.0429523
0.0432367
0.0435365
0.0438715
0.0442228
0.0446236
0.0450449
0.0455324
0.0460285
0.0466202
0.047214
0.0479394
0.0486625
0.0495542
0.0504825
0.0515597
0.0528038
0.0540726
0.0557631
0.0572737
0.0594786
0.0614137
0.0640935
0.0667547
0.0699085
0.0735204
0.0775045
0.0820017
0.0874757
0.0930771
0.100159
0.108511
0.118179
0.131163
0.150901
0.17948
0.206836
0.275543
0.345463
0.495667
0.0420638
0.0421414
0.0422193
0.0423029
0.0423879
0.0424744
0.0425616
0.0426499
0.0427393
0.0428301
0.0429229
0.043018
0.0431158
0.0432173
0.0433226
0.0434332
0.0435494
0.0436726
0.0438038
0.0439435
0.0440943
0.0442551
0.0444303
0.0446172
0.0448218
0.04504
0.0452797
0.0455348
0.045816
0.0461145
0.046445
0.046794
0.0471831
0.047591
0.0480595
0.0485452
0.0491175
0.049683
0.0503906
0.0510578
0.0519422
0.0527447
0.0538561
0.0548782
0.0562356
0.0576154
0.0591938
0.0611244
0.0629051
0.0655489
0.0676581
0.0710322
0.0738445
0.0778567
0.0818698
0.0866202
0.0920031
0.0983635
0.10504
0.11437
0.124625
0.138872
0.159174
0.191019
0.224304
0.288161
0.394484
0.494771
0.629154
0.0449781
0.0450683
0.0451604
0.0452602
0.0453637
0.0454698
0.045579
0.0456902
0.0458044
0.0459209
0.0460406
0.0461633
0.0462894
0.0464194
0.0465539
0.0466934
0.0468393
0.0469915
0.0471527
0.047322
0.0475032
0.0476945
0.047901
0.0481199
0.0483576
0.04861
0.0488861
0.0491791
0.0495015
0.0498436
0.0502226
0.050623
0.051072
0.0515421
0.0520919
0.0526504
0.0533335
0.0539807
0.0548497
0.0556007
0.0567157
0.0575992
0.0590363
0.0601253
0.0619198
0.0633489
0.0654769
0.067476
0.0698729
0.072734
0.0754061
0.0793566
0.0825691
0.0876009
0.0920152
0.0979155
0.104463
0.111917
0.121295
0.133658
0.14885
0.171842
0.205983
0.246915
0.318134
0.429007
0.551791
0.653211
0.721391
0.0487343
0.0488338
0.0489367
0.0490485
0.0491659
0.0492867
0.0494122
0.0495408
0.0496741
0.049811
0.049953
0.050099
0.0502504
0.0504062
0.0505681
0.0507349
0.0509093
0.0510898
0.0512799
0.051478
0.0516884
0.0519094
0.0521467
0.0523973
0.0526693
0.0529577
0.0532739
0.0536099
0.0539819
0.0543775
0.0548197
0.0552865
0.0558192
0.0563732
0.057039
0.0576947
0.0585354
0.0592896
0.0603757
0.0612288
0.0626377
0.0636108
0.0654451
0.0665922
0.0689289
0.0703531
0.0732469
0.0751385
0.0786075
0.081285
0.0852939
0.0892183
0.0937341
0.0993604
0.104793
0.112352
0.120467
0.130794
0.145055
0.162936
0.189025
0.227424
0.276512
0.358133
0.479867
0.609922
0.716865
0.777006
0.796541
0.0531999
0.0533214
0.0534476
0.0535848
0.0537296
0.0538791
0.0540346
0.0541941
0.0543594
0.0545289
0.0547045
0.0548847
0.0550717
0.0552634
0.055463
0.0556678
0.0558823
0.0561028
0.0563355
0.0565758
0.0568321
0.0570979
0.0573855
0.057685
0.0580139
0.058358
0.0587404
0.0591416
0.0595925
0.0600649
0.0606021
0.0611577
0.0618084
0.0624656
0.0632822
0.064045
0.0650773
0.0659409
0.0672723
0.0682367
0.0699565
0.0710703
0.0732861
0.0746303
0.0774422
0.0791196
0.0826732
0.084793
0.0892933
0.0920175
0.0976484
0.101365
0.108143
0.113874
0.122053
0.131753
0.143463
0.160659
0.181938
0.213378
0.257838
0.316325
0.412625
0.54465
0.682426
0.789675
0.840159
0.848049
0.844722
0.0590019
0.0591367
0.0592767
0.0594307
0.0595934
0.0597637
0.059941
0.0601256
0.0603168
0.0605155
0.0607211
0.0609342
0.0611549
0.0613832
0.0616206
0.0618661
0.0621232
0.0623892
0.0626706
0.0629618
0.0632738
0.0635967
0.063948
0.0643112
0.0647126
0.0651269
0.0655918
0.0660701
0.0666161
0.0671719
0.0678216
0.0684667
0.0692601
0.0700154
0.071014
0.0718785
0.0731496
0.0741316
0.075762
0.0768902
0.078959
0.080362
0.0829168
0.0847906
0.0878545
0.0904112
0.0941059
0.0974902
0.102103
0.106421
0.112437
0.117947
0.126335
0.134312
0.146998
0.16096
0.182215
0.209115
0.247401
0.301927
0.371924
0.484387
0.628233
0.769159
0.868394
0.911106
0.911162
0.911451
0.868202
0.0661588
0.0663383
0.0665237
0.0667271
0.0669402
0.067164
0.067395
0.0676363
0.0678838
0.0681418
0.068406
0.0686806
0.0689619
0.0692534
0.0695529
0.069863
0.0701838
0.0705157
0.0708626
0.0712213
0.0716014
0.0719943
0.0724174
0.0728544
0.0733339
0.0738272
0.0743806
0.0749444
0.0755958
0.076243
0.0770254
0.0777703
0.0787432
0.0796084
0.0808413
0.0818264
0.0834033
0.0845383
0.0865403
0.0879108
0.0903847
0.0922442
0.0951101
0.0978586
0.100968
0.10502
0.108438
0.114009
0.118202
0.125564
0.1315
0.141779
0.151723
0.167877
0.185996
0.213873
0.247924
0.298224
0.364014
0.451879
0.578991
0.73242
0.871036
0.959449
0.973122
0.975655
0.96835
0.947906
0.873329
0.0754911
0.0756868
0.0758889
0.0761138
0.0763501
0.0766011
0.0768613
0.0771354
0.0774181
0.0777146
0.0780203
0.0783394
0.0786686
0.0790107
0.079365
0.0797325
0.0801151
0.0805123
0.0809289
0.0813628
0.0818215
0.0823016
0.0828139
0.0833529
0.0839347
0.0845478
0.0852215
0.0859248
0.0867212
0.0875276
0.0884923
0.0894226
0.0906304
0.0917056
0.0932298
0.0944668
0.0964018
0.0978447
0.100269
0.102046
0.105
0.107462
0.110761
0.114542
0.117891
0.123637
0.127343
0.135161
0.14098
0.151172
0.162306
0.177513
0.198567
0.224158
0.261836
0.307481
0.373611
0.455651
0.563016
0.705457
0.860239
0.9839
1.05774
1.05769
1.05929
1.05479
1.00465
0.969939
0.878246
0.0875379
0.0878236
0.0881196
0.088442
0.088781
0.0891362
0.0895045
0.0898871
0.0902812
0.0906883
0.0911064
0.0915365
0.0919772
0.0924289
0.0928919
0.0933667
0.0938545
0.0943573
0.0948755
0.0954159
0.0959731
0.0965658
0.0971739
0.0978387
0.0985136
0.0992749
0.10004
0.100922
0.10181
0.102836
0.103908
0.105113
0.106449
0.107861
0.109528
0.111201
0.113298
0.1153
0.117973
0.120411
0.12388
0.127019
0.13131
0.135898
0.140923
0.148054
0.154944
0.165439
0.178459
0.194044
0.219115
0.245832
0.287997
0.336914
0.402067
0.488721
0.588396
0.71854
0.870085
1.0104
1.11414
1.15202
1.14648
1.14288
1.13495
1.09362
1.03739
0.980896
0.906254
0.103278
0.103573
0.103883
0.104226
0.10459
0.104976
0.10538
0.105804
0.106247
0.106707
0.107186
0.107683
0.108197
0.108729
0.109278
0.109848
0.110434
0.111048
0.111674
0.112347
0.11302
0.113775
0.114501
0.115375
0.116162
0.117199
0.11806
0.119302
0.12027
0.12176
0.122906
0.124683
0.126092
0.128206
0.129951
0.132529
0.13467
0.13787
0.140636
0.144578
0.148632
0.153428
0.159686
0.166436
0.175783
0.187402
0.202657
0.223283
0.251202
0.285643
0.333988
0.391896
0.464669
0.555719
0.659748
0.78556
0.927137
1.07264
1.19733
1.22927
1.23672
1.2413
1.24914
1.22755
1.17696
1.12608
1.05728
1.00687
0.922722
0.125039
0.125522
0.126022
0.126561
0.127127
0.127719
0.128333
0.128967
0.129622
0.130295
0.130985
0.131693
0.132417
0.133159
0.133913
0.13469
0.135473
0.136295
0.137105
0.137991
0.138822
0.139806
0.140649
0.141788
0.142632
0.143997
0.144843
0.146506
0.147407
0.14942
0.150501
0.15287
0.154291
0.157071
0.158996
0.162499
0.165019
0.169901
0.173413
0.180485
0.186625
0.196552
0.208595
0.223795
0.245377
0.273193
0.310029
0.358092
0.417502
0.491333
0.58031
0.683128
0.796117
0.925603
1.0583
1.20203
1.3267
1.36905
1.37952
1.38479
1.39373
1.37626
1.32612
1.26569
1.19935
1.14485
1.07242
1.0146
0.938627
0.153941
0.154424
0.154942
0.155513
0.156125
0.156775
0.15746
0.15818
0.158928
0.159708
0.160512
0.161346
0.162201
0.163088
0.163988
0.164932
0.165878
0.166897
0.167887
0.169017
0.170049
0.171348
0.172412
0.173969
0.175049
0.176972
0.178093
0.180483
0.181758
0.184629
0.186371
0.189698
0.192483
0.196489
0.201054
0.206677
0.213656
0.223085
0.233613
0.250213
0.268006
0.295061
0.328042
0.370831
0.427708
0.496846
0.579802
0.677926
0.789484
0.91236
1.04187
1.17652
1.30485
1.44019
1.55013
1.60724
1.61199
1.60946
1.60544
1.577
1.51852
1.44444
1.36196
1.28398
1.20817
1.15034
1.08413
1.03108
0.992823
0.198016
0.198874
0.199773
0.200747
0.201783
0.202876
0.204023
0.205222
0.206471
0.207772
0.20912
0.210519
0.211966
0.213465
0.215016
0.216625
0.218289
0.220036
0.221839
0.223776
0.225744
0.227974
0.230136
0.232781
0.235111
0.238283
0.240814
0.244656
0.247714
0.252511
0.257391
0.264508
0.273796
0.285107
0.301408
0.319644
0.345642
0.376027
0.415342
0.465355
0.524114
0.600204
0.688653
0.794181
0.914964
1.04661
1.18441
1.32876
1.4762
1.61269
1.73364
1.85006
1.94594
1.96926
1.97174
1.96857
1.94498
1.88286
1.79715
1.69305
1.59124
1.49462
1.39651
1.31621
1.23008
1.16505
1.11617
1.07807
1.0536
0.311795
0.314571
0.317478
0.320522
0.323706
0.327011
0.330451
0.334008
0.3377
0.341516
0.345474
0.34957
0.353833
0.358235
0.362867
0.367627
0.372713
0.377916
0.383617
0.389353
0.395859
0.402448
0.409918
0.417536
0.426226
0.435768
0.446064
0.458575
0.474581
0.49693
0.524106
0.559233
0.60251
0.65568
0.718507
0.791992
0.877113
0.975109
1.08593
1.21123
1.34912
1.5006
1.65993
1.82322
1.98469
2.13716
2.2746
2.39825
2.51175
2.58041
2.60516
2.6087
2.60127
2.56863
2.48144
2.37063
2.23773
2.10127
1.95562
1.81752
1.68261
1.55734
1.456
1.36112
1.25432
1.17782
1.0909
1.07677
1.13436
1.11677
1.13386
1.15135
1.16908
1.18719
1.20542
1.22399
1.24264
1.2616
1.28065
1.29999
1.31946
1.33923
1.35919
1.37951
1.40009
1.42111
1.44261
1.46471
1.48725
1.511
1.53574
1.56131
1.58665
1.62187
1.67374
1.74131
1.82247
1.91571
2.0172
2.12579
2.24048
2.36076
2.48606
2.61683
2.75221
2.89698
3.05147
3.20942
3.36974
3.52229
3.66891
3.79852
3.91534
4.00291
4.05671
4.08188
4.0871
4.07918
4.04213
3.94436
3.80023
3.62552
3.42457
3.20878
2.98661
2.76385
2.53517
2.29347
2.02711
1.79798
1.63269
1.47233
1.32093
1.22489
1.20415
1.3575
1.9004
2.16526
8.2632
8.26085
8.25791
8.25421
8.24989
8.24475
8.23892
8.23222
8.22477
8.21641
8.20724
8.1971
8.18612
8.17412
8.16122
8.14728
8.1324
8.11641
8.09946
8.08145
8.06229
8.0421
8.02105
7.99909
7.9745
7.94718
7.9199
7.88815
7.86344
7.82717
7.78299
7.73515
7.68527
7.63286
7.57752
7.51897
7.45699
7.39138
7.32213
7.2494
7.17363
7.09548
7.01581
6.93577
6.85675
6.78023
6.70738
6.63894
6.57134
6.50917
6.45524
6.40934
6.36921
6.33245
6.29758
6.264
6.23157
6.20005
6.16937
6.13959
6.11084
6.08329
6.05727
6.03316
6.0104
5.98901
5.96861
5.94881
5.9295
0.0289756
0.028978
0.0290079
0.0290101
0.0290116
0.0289798
0.0289667
0.0289487
0.0289422
0.0289405
0.028939
0.0289427
0.0289679
0.0289725
0.028884
0.0288444
0.0288455
0.0288568
0.028822
0.0287602
0.0287936
0.0288244
0.0287439
0.0287196
0.0286483
0.0285991
0.0286094
0.0286107
0.0286072
0.0285746
0.02854
0.0285204
0.0285168
0.0284635
0.0284431
0.0283985
0.0283855
0.0283586
0.0283208
0.028291
0.0282593
0.0282612
0.0282332
0.0281734
0.0281653
0.0281374
0.0281148
0.0280871
0.0280358
0.027991
0.0279791
0.0279871
0.0280048
0.0280233
0.0280275
0.0280177
0.0280009
0.0279718
0.0279505
0.0293349
0.0293265
0.0293068
0.029295
0.0292743
0.0292599
0.029253
0.0292565
0.0292601
0.0292628
0.0292668
0.0292672
0.0292465
0.029199
0.0291528
0.0291482
0.0291575
0.0291359
0.0290697
0.0290502
0.0290669
0.0290586
0.0289782
0.0289558
0.0288714
0.0288453
0.0288569
0.0288427
0.0288352
0.0287919
0.0287606
0.0287414
0.0287279
0.0286763
0.0286546
0.0286142
0.0285913
0.0285678
0.0285391
0.0285014
0.0284588
0.0284524
0.0284392
0.0284027
0.0283669
0.0283485
0.0283303
0.0283137
0.0282897
0.0282379
0.0282045
0.0281753
0.0281723
0.028178
0.0281941
0.0282175
0.02823
0.0282205
0.0282191
0.0296715
0.0296642
0.0296629
0.029662
0.0296473
0.0296461
0.0296479
0.0296575
0.0296599
0.029646
0.0296457
0.02962
0.0295662
0.0295235
0.0295067
0.0295084
0.0294944
0.0294369
0.029396
0.0294007
0.0294142
0.0293784
0.0292836
0.0292459
0.0291647
0.0291474
0.0291438
0.0291507
0.0291146
0.0290698
0.02904
0.029019
0.0289975
0.0289468
0.0289221
0.028886
0.0288577
0.028834
0.0288101
0.0287778
0.0287273
0.0287126
0.0287029
0.0286832
0.0286516
0.0286235
0.0286043
0.0285918
0.0285794
0.0285537
0.0284989
0.0284797
0.0284797
0.0284575
0.0284665
0.0284777
0.0284903
0.0285104
0.0285247
0.0302266
0.0302185
0.0301962
0.0301856
0.0301748
0.0301703
0.0301631
0.0301458
0.0301202
0.0300776
0.0300355
0.0299863
0.0299456
0.0299344
0.0299373
0.0299436
0.0298994
0.0298339
0.0298122
0.0298142
0.0297927
0.0297162
0.0296252
0.0295931
0.0295182
0.0295097
0.0295149
0.029489
0.0294557
0.0293986
0.0293727
0.0293447
0.0293171
0.0292669
0.0292389
0.0292056
0.02917
0.0291434
0.0291194
0.0290913
0.0290457
0.0290126
0.0289992
0.028984
0.0289671
0.0289462
0.0289251
0.0289113
0.0288973
0.0288834
0.0288536
0.028811
0.0287841
0.0287855
0.0288137
0.0288017
0.0288174
0.0288017
0.0288059
0.0307671
0.0307585
0.0307456
0.0307345
0.0307147
0.0306891
0.0306494
0.030605
0.0305675
0.0305277
0.0305065
0.0304937
0.0304923
0.0304965
0.0304941
0.0304273
0.0303404
0.0302886
0.0302821
0.0302862
0.0302494
0.0301645
0.0300741
0.0300189
0.0299501
0.02995
0.029927
0.0299229
0.0298559
0.0298072
0.0297749
0.0297437
0.0297108
0.029659
0.0296275
0.029595
0.0295596
0.0295289
0.0295036
0.029479
0.0294467
0.0294078
0.0293883
0.0293693
0.0293615
0.0293373
0.0293254
0.029305
0.0292974
0.0292963
0.0292784
0.0292706
0.0292369
0.0292382
0.0292536
0.0292714
0.029299
0.0293224
0.0293424
0.0314644
0.0314326
0.0313985
0.0313668
0.0313306
0.0312964
0.0312583
0.0312267
0.031198
0.0311829
0.0311761
0.0311631
0.0311294
0.0310966
0.0310163
0.0309324
0.0308864
0.0308828
0.0308922
0.0308613
0.0307674
0.0306486
0.03056
0.0305174
0.0304703
0.0304602
0.030447
0.030402
0.0303453
0.0302773
0.0302488
0.0302076
0.0301697
0.0301185
0.0300833
0.03005
0.0300145
0.0299801
0.0299503
0.0299249
0.0298964
0.0298633
0.0298341
0.0298146
0.029798
0.0297879
0.0297701
0.0297565
0.0297466
0.0297328
0.0297264
0.0297144
0.0296936
0.0296855
0.0296864
0.0296966
0.0297169
0.0297429
0.0297717
0.0321804
0.032142
0.0321121
0.0320795
0.0320492
0.032013
0.0319786
0.0319617
0.031959
0.0319464
0.0319243
0.0318667
0.0318242
0.0317452
0.0316896
0.0316236
0.0316088
0.0315961
0.0315397
0.0314621
0.0313564
0.0312699
0.0312094
0.0311453
0.0310777
0.0310808
0.0310408
0.0310044
0.0309089
0.0308638
0.0308209
0.0307774
0.0307337
0.0306787
0.0306379
0.0306015
0.0305655
0.0305304
0.0304992
0.0304734
0.0304493
0.0304232
0.030395
0.030375
0.0303576
0.0303526
0.0303356
0.0303275
0.0303212
0.0303176
0.0303167
0.0303215
0.0303222
0.0303252
0.0303293
0.0303365
0.0303496
0.0303636
0.0303823
0.0331514
0.0331404
0.0330958
0.0330815
0.0330573
0.0330258
0.0329915
0.0329671
0.0329139
0.0328585
0.032771
0.0327095
0.0326339
0.0325701
0.0325024
0.0324613
0.0324466
0.0323906
0.032309
0.0322299
0.0321214
0.0320182
0.0319129
0.0318471
0.0318328
0.0318023
0.031754
0.0316859
0.0316144
0.0315329
0.0314961
0.031439
0.0313891
0.0313351
0.0312908
0.0312528
0.0312161
0.031179
0.0311441
0.031114
0.0310869
0.03106
0.0310307
0.0310105
0.030985
0.0309769
0.0309652
0.0309601
0.030955
0.030948
0.0309482
0.0309592
0.0309739
0.0309923
0.0310128
0.0310338
0.0310604
0.0310821
0.0311065
0.0342549
0.0342333
0.0342027
0.0341782
0.0341332
0.0340828
0.0340226
0.0339575
0.0338795
0.033812
0.0337322
0.0336697
0.0335725
0.0335201
0.0334664
0.0334306
0.0333628
0.033288
0.033198
0.0330963
0.0329619
0.0328606
0.0328021
0.0327685
0.0326928
0.0326656
0.032606
0.0325335
0.0324076
0.0323693
0.0323108
0.0322531
0.0321967
0.0321374
0.0320848
0.0320393
0.0319989
0.0319611
0.031926
0.0318959
0.0318739
0.0318513
0.0318264
0.0318047
0.0317851
0.0317815
0.0317726
0.0317687
0.0317678
0.0317721
0.0317776
0.0317889
0.0318042
0.0318234
0.0318474
0.0318716
0.0319045
0.031931
0.0319618
0.0354451
0.0354218
0.0353967
0.03537
0.0353293
0.0352787
0.0352054
0.0351264
0.0350333
0.0349407
0.0348483
0.0347801
0.0347175
0.0346926
0.0346199
0.0345676
0.0345142
0.0344352
0.0343154
0.0341888
0.0340431
0.033974
0.0338737
0.0337752
0.0337528
0.0337121
0.0336026
0.033502
0.0334272
0.0333273
0.0332757
0.0331994
0.0331338
0.0330735
0.0330213
0.0329754
0.0329329
0.0328917
0.0328525
0.0328176
0.0327919
0.0327676
0.0327412
0.0327144
0.0326888
0.0326827
0.0326811
0.0326923
0.0327041
0.0327193
0.0327331
0.0327492
0.0327683
0.0327897
0.0328163
0.0328416
0.0328771
0.0329051
0.032939
0.0369006
0.0368336
0.0367806
0.0367183
0.0366474
0.036586
0.0365199
0.0364549
0.0363812
0.0363152
0.0362606
0.0362277
0.0361744
0.0361061
0.0360357
0.0359803
0.0358782
0.0357204
0.0355596
0.0354111
0.0352886
0.0351749
0.0350901
0.0350741
0.0350036
0.0348963
0.0348099
0.0347128
0.0345535
0.0345173
0.0344409
0.034366
0.0342945
0.0342261
0.0341617
0.0341047
0.0340566
0.0340139
0.0339738
0.0339402
0.0339176
0.0338997
0.0338814
0.0338635
0.0338553
0.0338513
0.0338573
0.0338752
0.0338989
0.0339266
0.0339528
0.0339791
0.0340063
0.0340339
0.0340661
0.034095
0.0341347
0.0341643
0.0342006
0.0386374
0.0385769
0.0385264
0.038524
0.0385116
0.0384508
0.0383722
0.0382914
0.0382205
0.0381642
0.038095
0.0379853
0.0378667
0.0377789
0.0376717
0.0375738
0.0374087
0.0372618
0.0371101
0.0369899
0.0368232
0.0367619
0.0366944
0.0365773
0.0364749
0.0364029
0.0362527
0.0361034
0.0360303
0.0359094
0.0358342
0.0357342
0.0356458
0.0355733
0.0355144
0.0354594
0.0354093
0.0353631
0.0353195
0.0352824
0.0352532
0.0352305
0.0352115
0.0351989
0.0351982
0.0351959
0.0352017
0.0352188
0.0352448
0.0352796
0.0353169
0.0353558
0.0353961
0.0354352
0.035479
0.0355161
0.0355653
0.0355997
0.0356421
0.040943
0.0409073
0.0408618
0.0408021
0.0406883
0.0405802
0.040479
0.0403911
0.0403002
0.0401883
0.0400513
0.0399329
0.0398224
0.0397441
0.0396296
0.0394948
0.0393472
0.039169
0.0390054
0.0388079
0.0386825
0.0385908
0.0384477
0.0383502
0.0382735
0.0381015
0.0379616
0.0378514
0.0376614
0.0376107
0.0375158
0.0374195
0.03733
0.037248
0.0371706
0.0371027
0.0370443
0.0369924
0.0369461
0.0369088
0.0368875
0.0368814
0.0368799
0.0368875
0.0369001
0.0369108
0.0369232
0.0369419
0.036967
0.0370012
0.0370414
0.0370858
0.0371344
0.0371818
0.0372363
0.0372816
0.0373419
0.0373826
0.0374331
0.0434585
0.0433954
0.0433659
0.0433393
0.0432856
0.0432275
0.0431313
0.0430207
0.0428854
0.0427219
0.0425746
0.0424403
0.0423338
0.0421684
0.0420082
0.0418325
0.0416058
0.0414023
0.0411837
0.0410377
0.0409133
0.0408283
0.0407077
0.0405884
0.0404175
0.0402689
0.0400899
0.0398951
0.0398075
0.0396693
0.0395599
0.039429
0.0393062
0.0392153
0.0391493
0.0390857
0.0390282
0.0389752
0.0389262
0.0388845
0.0388569
0.0388424
0.0388365
0.0388388
0.0388493
0.0388619
0.0388758
0.0388947
0.0389183
0.0389505
0.0389901
0.0390356
0.0390886
0.0391411
0.0392043
0.0392566
0.0393286
0.0393766
0.0394384
0.0467688
0.0466584
0.0465501
0.0464577
0.0463324
0.046231
0.0461047
0.0460031
0.0458466
0.0457076
0.0455144
0.0453522
0.045149
0.0449608
0.0447788
0.0445428
0.0443228
0.0441331
0.0439766
0.0438547
0.043731
0.0435837
0.0433578
0.0431704
0.0429872
0.042769
0.04258
0.0424388
0.0422276
0.0421362
0.0420194
0.0418967
0.0417866
0.0416882
0.0415972
0.0415123
0.0414389
0.0413759
0.0413219
0.0412785
0.0412501
0.0412374
0.0412345
0.0412515
0.0412798
0.0413121
0.0413438
0.0413767
0.0414091
0.0414452
0.0414856
0.0415299
0.0415825
0.0416335
0.0416992
0.0417518
0.0418305
0.0418808
0.0419513
0.050556
0.0504338
0.0503212
0.0502095
0.0500906
0.0499508
0.0498219
0.0496245
0.0494475
0.0492194
0.049043
0.0488263
0.0486272
0.0484194
0.0481901
0.0479535
0.0477724
0.047596
0.0474148
0.047225
0.046999
0.0467529
0.0465726
0.0463597
0.0461715
0.0459771
0.0457357
0.0455124
0.0453857
0.0452322
0.0450804
0.0449064
0.0447315
0.0446184
0.0445469
0.0444746
0.0444073
0.0443455
0.0442891
0.0442401
0.0442026
0.0441798
0.0441697
0.044156
0.0441611
0.044179
0.0442009
0.0442298
0.0442626
0.0443011
0.0443452
0.0443923
0.0444494
0.0445026
0.0445742
0.0446289
0.0447163
0.0447694
0.0448494
0.0551923
0.0549851
0.0548071
0.0546713
0.0544762
0.054362
0.0541572
0.0540296
0.0538008
0.0536346
0.0533984
0.0531893
0.0529806
0.0527581
0.0525061
0.0523306
0.0520875
0.0518488
0.051588
0.0513484
0.051063
0.0508918
0.0505949
0.0503442
0.0500916
0.0497243
0.0494938
0.0493059
0.0490637
0.0489018
0.0487524
0.0485985
0.0484654
0.0483455
0.0482342
0.0481261
0.0480327
0.0479555
0.0478925
0.047843
0.0478082
0.0477896
0.0477855
0.0477727
0.0477684
0.0477949
0.0478418
0.047894
0.0479447
0.0479959
0.0480492
0.0481016
0.0481639
0.048219
0.0482957
0.0483514
0.0484466
0.0485012
0.0485899
0.0611435
0.0609333
0.0607295
0.0605428
0.0603099
0.0600988
0.0598461
0.0595871
0.0593227
0.0590701
0.0587864
0.0585442
0.0583011
0.0579949
0.0577698
0.0574735
0.0571614
0.0568781
0.0566082
0.0562818
0.0560399
0.055709
0.055385
0.0551015
0.0547464
0.0545282
0.0542766
0.0540007
0.053814
0.0536469
0.0534494
0.0532144