/*--------------------------------*- C++ -*----------------------------------*\
| =========                 |                                                 |
| \\      /  F ield         | OpenFOAM: The Open Source CFD Toolbox           |
|  \\    /   O peration     | Version:  2312                                  |
|   \\  /    A nd           | Website:  www.openfoam.com                      |
|    \\/     M anipulation  |                                                 |
\*---------------------------------------------------------------------------*/
FoamFile
{
    version     2.0;
    format      ascii;
    arch        "LSB;label=32;scalar=64";
    class       volScalarField;
    location    "1700";
    object      p;
}
// * * * * * * * * * * * * * * * * * * * * * * * * * * * * * * * * * * * * * //

dimensions      [0 2 -2 0 0 0 0];

internalField   nonuniform List<scalar> 
76025
(
0.000307839
0.000299653
0.000291392
0.000283092
0.000274765
0.000266334
0.000257592
0.000248997
0.00024015
0.000231385
0.000222566
0.000213685
0.00020473
0.00019578
0.000186763
0.000177784
0.000168909
0.000159898
0.000150996
0.000142207
0.000133466
0.000124569
0.00011595
0.000107559
9.92384e-05
9.11078e-05
8.29726e-05
7.49864e-05
6.73599e-05
5.95589e-05
5.21717e-05
4.52743e-05
3.87158e-05
3.25451e-05
2.65666e-05
2.081e-05
1.54193e-05
1.00476e-05
5.50394e-06
1.49742e-06
-2.02037e-06
-5.26667e-06
-8.31692e-06
-1.02585e-05
-1.17486e-05
-1.2737e-05
-1.32679e-05
-1.26915e-05
-1.13271e-05
-9.53546e-06
-7.06285e-06
-3.71401e-06
6.23843e-07
6.20016e-06
1.30322e-05
2.11963e-05
3.013e-05
4.05791e-05
5.20914e-05
6.46705e-05
7.87531e-05
9.46064e-05
0.000112552
0.000131541
0.000152185
0.00017531
0.000199162
0.00022539
0.000256371
0.000309166
0.000300575
0.000291965
0.000283254
0.000274427
0.000265446
0.000256414
0.000247318
0.000238114
0.00022887
0.000219579
0.000210261
0.000200908
0.000191515
0.000182117
0.000172756
0.00016335
0.000154007
0.000144636
0.00013538
0.000126115
0.000116976
0.000107999
9.9184e-05
9.04625e-05
8.18626e-05
7.33973e-05
6.51965e-05
5.71767e-05
4.93431e-05
4.18051e-05
3.4477e-05
2.74777e-05
2.08813e-05
1.44945e-05
8.45354e-06
2.72105e-06
-2.60086e-06
-7.36668e-06
-1.17203e-05
-1.55863e-05
-1.90454e-05
-2.19882e-05
-2.42101e-05
-2.59263e-05
-2.70681e-05
-2.75868e-05
-2.72312e-05
-2.61514e-05
-2.44525e-05
-2.20128e-05
-1.86641e-05
-1.43081e-05
-8.82917e-06
-2.15397e-06
5.7125e-06
1.46618e-05
2.49225e-05
3.63974e-05
4.91221e-05
6.33075e-05
7.92233e-05
9.68856e-05
0.000116032
0.000136887
0.000159771
0.00018405
0.000210377
0.000239287
0.000309978
0.000300985
0.000291947
0.000282773
0.000273444
0.000264005
0.000254483
0.000244882
0.000235215
0.000225489
0.000215719
0.000205914
0.00019607
0.000186202
0.000176335
0.00016646
0.000156603
0.000146773
0.00013698
0.000127237
0.000117581
0.000108044
9.8627e-05
8.93387e-05
8.01824e-05
7.11749e-05
6.2362e-05
5.37559e-05
4.53544e-05
3.71953e-05
2.92766e-05
2.16207e-05
1.42885e-05
7.29567e-06
6.30684e-07
-5.67394e-06
-1.15953e-05
-1.70984e-05
-2.21593e-05
-2.67676e-05
-3.08863e-05
-3.45069e-05
-3.75975e-05
-4.01027e-05
-4.20226e-05
-4.33237e-05
-4.39628e-05
-4.38564e-05
-4.30027e-05
-4.14092e-05
-3.90193e-05
-3.57308e-05
-3.14524e-05
-2.60971e-05
-1.95953e-05
-1.1913e-05
-3.05368e-06
7.06077e-06
1.84561e-05
3.11903e-05
4.54048e-05
6.12385e-05
7.87169e-05
9.78275e-05
0.000118669
0.000141377
0.00016577
0.000192025
0.000220033
0.000310425
0.000300963
0.000291436
0.000281767
0.000271942
0.000261987
0.000251941
0.000241828
0.000231659
0.000221432
0.000211154
0.000200832
0.000190476
0.000180101
0.000169726
0.00015936
0.000149018
0.000138713
0.000128458
0.000118272
0.000108176
9.8184e-05
8.83112e-05
7.85768e-05
6.89983e-05
5.9591e-05
5.03749e-05
4.13682e-05
3.25909e-05
2.40633e-05
1.5803e-05
7.83318e-06
1.79642e-07
-7.12935e-06
-1.40755e-05
-2.06472e-05
-2.68269e-05
-3.25933e-05
-3.79174e-05
-4.27704e-05
-4.71297e-05
-5.09788e-05
-5.4295e-05
-5.70351e-05
-5.91666e-05
-6.06664e-05
-6.14995e-05
-6.16109e-05
-6.09618e-05
-5.95307e-05
-5.72744e-05
-5.41188e-05
-4.99828e-05
-4.47902e-05
-3.84747e-05
-3.09912e-05
-2.23092e-05
-1.23739e-05
-1.12888e-06
1.14933e-05
2.55893e-05
4.12563e-05
5.85347e-05
7.74601e-05
9.81167e-05
0.000120597
0.000144778
0.000170685
0.000198152
0.000310762
0.000300789
0.000290749
0.000280562
0.000270213
0.000259726
0.000249145
0.000238499
0.000227796
0.000217034
0.000206218
0.000195361
0.000184476
0.00017358
0.000162686
0.000151809
0.00014096
0.000130154
0.000119406
0.000108734
9.81546e-05
8.76861e-05
7.73472e-05
6.71569e-05
5.71326e-05
4.72915e-05
3.76522e-05
2.82356e-05
1.90615e-05
1.01484e-05
1.51644e-06
-6.81337e-06
-1.48167e-05
-2.2466e-05
-2.97432e-05
-3.66356e-05
-4.31237e-05
-4.91816e-05
-5.47836e-05
-5.99083e-05
-6.45361e-05
-6.86469e-05
-7.22156e-05
-7.52071e-05
-7.75862e-05
-7.93244e-05
-8.03877e-05
-8.07302e-05
-8.03092e-05
-7.90897e-05
-7.70275e-05
-7.40621e-05
-7.01246e-05
-6.51464e-05
-5.90656e-05
-5.18302e-05
-4.33933e-05
-3.37e-05
-2.26891e-05
-1.02929e-05
3.56703e-06
1.89697e-05
3.59638e-05
5.45864e-05
7.49093e-05
9.70091e-05
0.000120774
0.000146268
0.000173306
0.000310979
0.000300463
0.000289882
0.000279146
0.000268241
0.000257192
0.000246046
0.000234833
0.000223561
0.000212229
0.000200845
0.000189422
0.000177976
0.000166523
0.000155076
0.000143649
0.000132256
0.000120914
0.000109637
9.84444e-05
8.73531e-05
7.63821e-05
6.55501e-05
5.48756e-05
4.43771e-05
3.40735e-05
2.39841e-05
1.41289e-05
4.52766e-06
-4.79967e-06
-1.3832e-05
-2.25479e-05
-3.09234e-05
-3.89344e-05
-4.65631e-05
-5.37934e-05
-6.06035e-05
-6.69691e-05
-7.28702e-05
-7.82895e-05
-8.32073e-05
-8.76018e-05
-9.1447e-05
-9.47114e-05
-9.73613e-05
-9.93633e-05
-0.000100684
-0.000101284
-0.000101121
-0.000100155
-9.83405e-05
-9.5623e-05
-9.19428e-05
-8.72378e-05
-8.14477e-05
-7.45174e-05
-6.63936e-05
-5.70193e-05
-4.63332e-05
-3.42691e-05
-2.0757e-05
-5.72906e-06
1.08685e-05
2.90711e-05
4.89269e-05
7.04825e-05
9.36697e-05
0.000118627
0.000144862
0.000310968
0.000299877
0.000288718
0.000277396
0.000265897
0.000254248
0.000242499
0.000230683
0.000218808
0.000206874
0.000194888
0.000182865
0.000170821
0.000158774
0.000146737
0.000134728
0.00012276
0.000110851
9.90168e-05
8.72759e-05
7.56463e-05
6.41468e-05
5.27961e-05
4.16135e-05
3.06182e-05
1.98298e-05
9.26809e-06
-1.04676e-06
-1.10943e-05
-2.08538e-05
-3.0304e-05
-3.94239e-05
-4.81899e-05
-5.65799e-05
-6.45764e-05
-7.21618e-05
-7.93145e-05
-8.6012e-05
-9.22374e-05
-9.79753e-05
-0.000103206
-0.000107909
-0.000112057
-0.00011562
-0.000118567
-0.000120863
-0.000122475
-0.000123368
-0.000123502
-0.000122835
-0.000121321
-0.000118911
-0.00011555
-0.00011118
-0.000105745
-9.91879e-05
-9.1454e-05
-8.24854e-05
-7.2221e-05
-6.05977e-05
-4.75508e-05
-3.30195e-05
-1.69514e-05
6.90753e-07
1.99329e-05
4.07752e-05
6.32753e-05
8.75314e-05
0.00011303
0.000310672
0.00029897
0.000287196
0.00027525
0.000263118
0.000250832
0.000238443
0.000225988
0.000213474
0.000200904
0.000188282
0.000175625
0.00016295
0.000150276
0.000137619
0.000124995
0.000112422
9.99154e-05
8.74936e-05
7.51747e-05
6.29776e-05
5.09211e-05
3.90249e-05
2.73083e-05
1.57914e-05
4.49429e-06
-6.56286e-06
-1.73595e-05
-2.78748e-05
-3.8088e-05
-4.79784e-05
-5.75245e-05
-6.67029e-05
-7.54932e-05
-8.38786e-05
-9.1841e-05
-9.93587e-05
-0.000106411
-0.000112983
-0.000119062
-0.000124629
-0.000129663
-0.00013414
-0.00013803
-0.000141302
-0.000143925
-0.000145865
-0.000147088
-0.000147558
-0.000147236
-0.000146078
-0.000144034
-0.000141055
-0.000137088
-0.000132078
-0.000125972
-0.000118713
-0.000110243
-0.000100505
-8.94369e-05
-7.6979e-05
-6.30762e-05
-4.76817e-05
-3.07662e-05
-1.23208e-05
7.6349e-06
2.9281e-05
5.25921e-05
7.7671e-05
0.000310042
0.000297693
0.000285268
0.000272661
0.000259859
0.000246896
0.000233829
0.000220696
0.000207506
0.00019426
0.000180966
0.000167639
0.000154297
0.000140961
0.000127649
0.000114377
0.000101164
8.80257e-05
7.49821e-05
6.2052e-05
4.92549e-05
3.66105e-05
2.41387e-05
1.18598e-05
-2.05923e-07
-1.20379e-05
-2.36154e-05
-3.49178e-05
-4.59243e-05
-5.66139e-05
-6.69661e-05
-7.6959e-05
-8.65697e-05
-9.57798e-05
-0.000104573
-0.000112932
-0.000120834
-0.00012826
-0.0001352
-0.000141643
-0.00014757
-0.000152961
-0.000157793
-0.000162038
-0.000165667
-0.000168649
-0.000170954
-0.000172549
-0.000173399
-0.000173471
-0.000172722
-0.000171106
-0.000168576
-0.000165083
-0.000160576
-0.000155004
-0.000148312
-0.000140444
-0.000131343
-0.000120952
-0.000109214
-9.60802e-05
-8.1512e-05
-6.5498e-05
-4.80396e-05
-2.91206e-05
-8.56212e-06
1.33034e-05
3.64795e-05
0.00030901
0.000295974
0.000282858
0.00026955
0.000256038
0.000242359
0.000228573
0.00021472
0.000200813
0.000186852
0.000172845
0.000158807
0.00014476
0.000130725
0.000116719
0.000102763
8.88725e-05
7.50678e-05
6.1368e-05
4.77933e-05
3.43639e-05
2.11003e-05
8.02318e-06
-4.84667e-06
-1.74884e-05
-2.9881e-05
-4.20036e-05
-5.38353e-05
-6.53552e-05
-7.65425e-05
-8.73768e-05
-9.78357e-05
-0.000107898
-0.000117547
-0.000126768
-0.000135541
-0.000143846
-0.000151668
-0.000158999
-0.000165828
-0.000172139
-0.000177912
-0.000183126
-0.000187754
-0.000191769
-0.000195145
-0.000197852
-0.000199861
-0.000201139
-0.000201655
-0.000201372
-0.000200247
-0.000198235
-0.000195293
-0.000191372
-0.000186425
-0.000180399
-0.000173241
-0.000164896
-0.000155312
-0.000144435
-0.000132221
-0.000118647
-0.000103705
-8.73669e-05
-6.9574e-05
-5.02522e-05
-3.01576e-05
-8.82823e-06
0.000307493
0.000293726
0.000279876
0.000265824
0.000251559
0.000237121
0.000222573
0.000207958
0.00019329
0.000178571
0.000163809
0.00014902
0.000134226
0.000119451
0.000104713
9.0033e-05
7.54295e-05
6.09221e-05
4.65314e-05
3.22785e-05
1.81844e-05
4.27047e-06
-9.4419e-06
-2.29313e-05
-3.61765e-05
-4.9156e-05
-6.18486e-05
-7.42333e-05
-8.62893e-05
-9.79958e-05
-0.000109333
-0.000120277
-0.000130811
-0.000140919
-0.000150585
-0.000159791
-0.000168519
-0.000176756
-0.000184497
-0.000191734
-0.000198452
-0.000204632
-0.000210253
-0.000215292
-0.000219725
-0.000223527
-0.000226674
-0.00022914
-0.000230895
-0.000231909
-0.000232149
-0.000231579
-0.000230159
-0.000227848
-0.000224601
-0.000220376
-0.000215123
-0.000208793
-0.000201334
-0.000192695
-0.000182831
-0.000171706
-0.000159299
-0.000145571
-0.000130439
-0.00011385
-9.59418e-05
-7.76829e-05
-5.79737e-05
0.000305399
0.000290854
0.000276224
0.000261382
0.000246318
0.000231073
0.000215717
0.000200295
0.000184822
0.0001693
0.000153739
0.000138155
0.000122572
0.000107014
9.15025e-05
7.60589e-05
6.07029e-05
4.54553e-05
3.03374e-05
1.53713e-05
5.79008e-07
-1.40174e-05
-2.83957e-05
-4.25341e-05
-5.64105e-05
-7.00033e-05
-8.3291e-05
-9.62523e-05
-0.000108867
-0.000121113
-0.000132972
-0.000144422
-0.000155446
-0.00016603
-0.000176159
-0.000185814
-0.000194982
-0.000203652
-0.000211824
-0.00021949
-0.000226635
-0.000233244
-0.000239297
-0.000244774
-0.000249655
-0.000253919
-0.000257544
-0.000260509
-0.000262788
-0.000264354
-0.00026518
-0.000265232
-0.000264478
-0.000262881
-0.000260402
-0.000257002
-0.000252636
-0.000247261
-0.000240827
-0.000233291
-0.000224608
-0.000214746
-0.000203647
-0.000191226
-0.000177414
-0.000162317
-0.000146285
-0.000129901
-0.000110052
0.000302623
0.00028725
0.000271789
0.000256106
0.000240192
0.000224092
0.000207878
0.000191599
0.000175273
0.000158901
0.000142493
0.000126068
0.00010965
9.32652e-05
7.69369e-05
6.06874e-05
4.45378e-05
2.85101e-05
1.26268e-05
-3.08912e-06
-1.86146e-05
-3.39267e-05
-4.90025e-05
-6.38194e-05
-7.8355e-05
-9.25872e-05
-0.000106494
-0.000120055
-0.000133248
-0.000146055
-0.000158454
-0.000170426
-0.000181956
-0.000193032
-0.000203638
-0.000213758
-0.00022338
-0.0002325
-0.000241121
-0.000249233
-0.000256826
-0.000263884
-0.000270393
-0.000276335
-0.000281692
-0.00028645
-0.000290591
-0.000294096
-0.000296947
-0.00029912
-0.000300591
-0.000301335
-0.000301323
-0.000300525
-0.00029891
-0.000296444
-0.000293089
-0.000288805
-0.00028355
-0.000277285
-0.00026996
-0.000261504
-0.000251806
-0.000240817
-0.000228605
-0.00021552
-0.000201732
-0.000187641
-0.000172821
0.000299034
0.00028278
0.000266436
0.000249859
0.000233041
0.000216031
0.000198906
0.000181718
0.000164486
0.000147213
0.000129909
0.000112593
9.52922e-05
7.80334e-05
6.08423e-05
4.37422e-05
2.67561e-05
9.90689e-06
-6.78155e-06
-2.32851e-05
-3.95797e-05
-5.56414e-05
-7.14465e-05
-8.69717e-05
-0.000102194
-0.000117091
-0.000131641
-0.000145822
-0.000159614
-0.000172998
-0.000185953
-0.000198462
-0.000210513
-0.000222094
-0.000233189
-0.000243785
-0.000253875
-0.00026346
-0.000272543
-0.000281118
-0.000289174
-0.000296701
-0.000303685
-0.000310114
-0.000315976
-0.000321258
-0.000325949
-0.000330035
-0.000333503
-0.000336334
-0.000338511
-0.000340013
-0.000340821
-0.000340911
-0.000340259
-0.000338839
-0.000336622
-0.000333575
-0.00032966
-0.000324829
-0.000319003
-0.000312069
-0.000303958
-0.000294798
-0.000284737
-0.000274009
-0.000262163
-0.000250289
-0.000237213
0.00029448
0.000277286
0.000260003
0.000242475
0.000224695
0.000206718
0.000188623
0.000170469
0.000152275
0.000134047
0.000115793
9.7534e-05
7.92985e-05
6.11157e-05
4.3013e-05
2.50155e-05
7.14747e-06
-1.05666e-05
-2.81017e-05
-4.54323e-05
-6.25332e-05
-7.93794e-05
-9.59463e-05
-0.00011221
-0.000128147
-0.000143734
-0.000158949
-0.000173771
-0.00018818
-0.000202157
-0.000215682
-0.000228741
-0.000241324
-0.000253417
-0.000265009
-0.000276089
-0.000286655
-0.000296714
-0.00030627
-0.000315317
-0.000323849
-0.000331856
-0.000339332
-0.000346267
-0.000352654
-0.000358487
-0.00036376
-0.000368463
-0.00037259
-0.000376128
-0.000379067
-0.000381394
-0.000383098
-0.000384163
-0.000384573
-0.000384316
-0.000383372
-0.000381706
-0.000379275
-0.000376003
-0.000371798
-0.000366626
-0.000360633
-0.000353961
-0.000346588
-0.00033845
-0.000329327
-0.000320467
-0.000309446
0.000288779
0.000270585
0.000252301
0.000233761
0.000214959
0.000195952
0.000176827
0.000157647
0.000138432
0.00011919
9.9929e-05
8.06714e-05
6.1447e-05
4.22876e-05
2.32224e-05
4.27841e-06
-1.45184e-05
-3.31421e-05
-5.15662e-05
-6.97638e-05
-8.77084e-05
-0.000105374
-0.000122734
-0.000139765
-0.000156442
-0.000172742
-0.000188643
-0.000204123
-0.000219164
-0.000233745
-0.00024785
-0.000261468
-0.000274588
-0.000287199
-0.000299292
-0.00031086
-0.000321909
-0.000332448
-0.000342483
-0.000352008
-0.000361022
-0.000369519
-0.000377496
-0.000384951
-0.000391882
-0.000398287
-0.000404167
-0.00040952
-0.000414342
-0.000418632
-0.000422387
-0.000425603
-0.000428275
-0.000430399
-0.000431976
-0.000432999
-0.000433452
-0.000433286
-0.000432446
-0.00043087
-0.000428601
-0.000425803
-0.000422597
-0.000418893
-0.000414671
-0.000410014
-0.000405097
-0.000400388
-0.000394316
0.00028171
0.000262449
0.000243098
0.00022348
0.000203589
0.000183486
0.000163265
0.000142992
0.000122693
0.000102373
8.20428e-05
6.17259e-05
4.14539e-05
2.12605e-05
1.17754e-06
-1.87659e-05
-3.85421e-05
-5.81236e-05
-7.7482e-05
-9.65892e-05
-0.000115417
-0.000133938
-0.000152125
-0.000169954
-0.000187398
-0.000204434
-0.00022104
-0.000237195
-0.000252879
-0.000268073
-0.000282765
-0.000296944
-0.000310601
-0.000323728
-0.000336316
-0.000348368
-0.000359894
-0.000370908
-0.000381413
-0.000391411
-0.000400902
-0.000409886
-0.000418365
-0.000426344
-0.000433826
-0.000440817
-0.000447322
-0.000453346
-0.000458895
-0.000463976
-0.000468594
-0.000472752
-0.000476456
-0.000479722
-0.000482561
-0.000484961
-0.000486906
-0.000488341
-0.000489253
-0.000489788
-0.000490107
-0.00049027
-0.000490255
-0.00049014
-0.000490085
-0.000490255
-0.000490437
-0.000490722
-0.000488853
0.000273029
0.000252631
0.000232143
0.000211378
0.000190329
0.000169061
0.000147673
0.00012624
0.000104788
8.33253e-05
6.18626e-05
4.0424e-05
1.90436e-05
-2.24229e-06
-2.33992e-05
-4.43957e-05
-6.52021e-05
-8.57888e-05
-0.000106126
-0.000126183
-0.000145931
-0.000165341
-0.000184384
-0.000203034
-0.000221264
-0.000239052
-0.000256375
-0.000273212
-0.000289543
-0.000305352
-0.00032063
-0.000335367
-0.000349556
-0.000363189
-0.000376267
-0.000388796
-0.000400795
-0.000412276
-0.000423246
-0.000433708
-0.000443669
-0.000453134
-0.000462113
-0.000470614
-0.000478648
-0.000486228
-0.000493366
-0.000500078
-0.000506376
-0.000512271
-0.000517779
-0.000522915
-0.000527707
-0.000532179
-0.000536339
-0.000540182
-0.000543694
-0.000546944
-0.000550114
-0.000553367
-0.000556722
-0.000560256
-0.000564165
-0.000568677
-0.000573854
-0.000579656
-0.000585474
-0.000591219
-0.000594023
0.000262388
0.000240773
0.000219071
0.00019708
0.000174793
0.00015228
0.000129648
0.000106976
8.42955e-05
6.16151e-05
3.89463e-05
1.63147e-05
-6.24361e-06
-2.86892e-05
-5.09848e-05
-7.30964e-05
-9.49918e-05
-0.000116639
-0.000138007
-0.000159063
-0.000179775
-0.000200112
-0.000220046
-0.000239549
-0.000258593
-0.000277154
-0.000295209
-0.000312737
-0.000329718
-0.00034614
-0.000361993
-0.000377271
-0.000391967
-0.00040608
-0.000419616
-0.000432591
-0.000445027
-0.000456937
-0.000468332
-0.000479221
-0.000489615
-0.000499529
-0.000508976
-0.000517974
-0.00052654
-0.000534697
-0.000542462
-0.000549855
-0.000556894
-0.000563601
-0.000570004
-0.000576138
-0.000582038
-0.000587726
-0.000593214
-0.000598574
-0.000603947
-0.000609505
-0.000615373
-0.000621628
-0.000628473
-0.000636156
-0.000644808
-0.000654549
-0.000665312
-0.000676739
-0.000687982
-0.000698578
-0.000705598
0.000249508
0.000226598
0.000203605
0.000180313
0.000156712
0.000132878
0.000108924
8.4938e-05
6.09546e-05
3.6984e-05
1.30387e-05
-1.08542e-05
-3.46561e-05
-5.83243e-05
-8.18182e-05
-0.000105101
-0.000128137
-0.000150892
-0.000173333
-0.000195424
-0.000217131
-0.000238422
-0.000259266
-0.000279633
-0.000299495
-0.000318828
-0.000337609
-0.000355818
-0.000373437
-0.000390458
-0.000406871
-0.000422671
-0.000437857
-0.000452432
-0.000466409
-0.000479814
-0.000492669
-0.000504988
-0.000516786
-0.00052808
-0.000538887
-0.000549227
-0.000559124
-0.000568602
-0.000577688
-0.000586405
-0.000594778
-0.000602833
-0.000610599
-0.000618116
-0.00062541
-0.000632518
-0.000639473
-0.000646349
-0.000653291
-0.000660466
-0.000668023
-0.000676077
-0.000684836
-0.000694571
-0.00070547
-0.000717599
-0.000731083
-0.000745867
-0.000761572
-0.000777607
-0.000793083
-0.00080736
-0.000817919
0.00023373
0.000209426
0.000185042
0.00016035
0.000135338
0.000110084
8.47107e-05
5.93133e-05
3.39316e-05
8.57711e-06
-1.67366e-05
-4.19811e-05
-6.71148e-05
-9.20915e-05
-0.000116867
-0.0001414
-0.000165653
-0.000189588
-0.000213168
-0.000236357
-0.000259116
-0.000281412
-0.000303211
-0.000324482
-0.000345194
-0.000365321
-0.000384838
-0.000403723
-0.000421962
-0.000439547
-0.000456471
-0.000472732
-0.000488334
-0.000503288
-0.00051762
-0.000531359
-0.00054453
-0.000557154
-0.000569252
-0.000580853
-0.000591986
-0.00060268
-0.000612966
-0.000622871
-0.000632425
-0.000641659
-0.000650611
-0.000659318
-0.000667808
-0.000676114
-0.000684254
-0.000692291
-0.000700357
-0.000708598
-0.000717169
-0.000726212
-0.000735961
-0.000746697
-0.000758661
-0.000771909
-0.000786499
-0.000802566
-0.000820028
-0.000838477
-0.000857319
-0.00087597
-0.000893645
-0.000909832
-0.000922596
0.000214982
0.000189201
0.000163355
0.000137188
0.000110686
8.39332e-05
5.70622e-05
3.01765e-05
3.32178e-06
-2.34881e-05
-5.02388e-05
-7.69e-05
-0.000103427
-0.00012977
-0.00015588
-0.000181712
-0.000207223
-0.000232374
-0.000257123
-0.000281429
-0.000305252
-0.000328554
-0.0003513
-0.000373456
-0.000394993
-0.000415887
-0.000436112
-0.000455651
-0.00047449
-0.000492621
-0.00051004
-0.000526748
-0.000542754
-0.000558081
-0.000572759
-0.000586817
-0.00060028
-0.000613177
-0.000625543
-0.000637416
-0.000648834
-0.000659837
-0.000670466
-0.000680762
-0.000690766
-0.000700517
-0.000710054
-0.000719408
-0.000728612
-0.00073772
-0.000746806
-0.000755954
-0.000765282
-0.000774929
-0.0007851
-0.000796064
-0.000808118
-0.000821414
-0.000835924
-0.000851711
-0.000868866
-0.000887254
-0.000906408
-0.00092584
-0.00094508
-0.000963752
-0.000981142
-0.000997217
-0.00101004
0.000191642
0.000164252
0.00013679
0.000109007
8.08806e-05
5.24926e-05
2.3985e-05
-4.5281e-06
-3.29943e-05
-6.13969e-05
-8.972e-05
-0.000117931
-0.000145983
-0.000173819
-0.000201388
-0.000228638
-0.000255523
-0.000282
-0.000308022
-0.000333545
-0.000358525
-0.000382918
-0.000406683
-0.00042978
-0.000452173
-0.00047383
-0.000494727
-0.000514846
-0.000534177
-0.000552715
-0.000570458
-0.000587418
-0.000603615
-0.000619086
-0.000633869
-0.000647997
-0.000661501
-0.000674422
-0.000686801
-0.000698687
-0.000710131
-0.000721192
-0.000731934
-0.000742423
-0.000752716
-0.000762863
-0.000772916
-0.000782919
-0.00079292
-0.000802966
-0.000813125
-0.000823475
-0.000834127
-0.000845275
-0.000857155
-0.000869939
-0.000883643
-0.000898297
-0.000913942
-0.000930523
-0.000947772
-0.000965311
-0.000982828
-0.00100013
-0.00101697
-0.00103317
-0.00104839
-0.00106296
-0.00107549
0.000164901
0.00013584
0.00010675
7.73173e-05
4.75161e-05
1.74422e-05
-1.27497e-05
-4.29355e-05
-7.30563e-05
-0.000103093
-0.000133027
-0.000162824
-0.000192433
-0.000221792
-0.000250841
-0.000279524
-0.000307789
-0.000335585
-0.000362863
-0.000389575
-0.000415676
-0.000441123
-0.000465875
-0.000489897
-0.00051315
-0.000535599
-0.000557215
-0.000577977
-0.000597869
-0.000616884
-0.000635021
-0.000652296
-0.000668746
-0.000684415
-0.000699341
-0.000713561
-0.000727119
-0.000740064
-0.000752449
-0.000764328
-0.00077576
-0.000786806
-0.000797537
-0.000808045
-0.000818448
-0.000828874
-0.000839429
-0.000850158
-0.00086104
-0.000872051
-0.000883247
-0.00089478
-0.000906787
-0.000919314
-0.000932313
-0.000945783
-0.000959702
-0.00097397
-0.000988396
-0.00100268
-0.00101658
-0.00102997
-0.00104294
-0.00105557
-0.00106796
-0.00108026
-0.00109253
-0.00110511
-0.00111752
0.000129757
9.87941e-05
6.77578e-05
3.64069e-05
4.69254e-06
-2.73094e-05
-5.94337e-05
-9.15386e-05
-0.000123556
-0.000155462
-0.000187241
-0.000218854
-0.000250247
-0.000281352
-0.000312104
-0.000342437
-0.000372294
-0.000401613
-0.000430331
-0.000458385
-0.000485713
-0.000512261
-0.000537982
-0.000562837
-0.000586794
-0.000609824
-0.0006319
-0.000653004
-0.000673127
-0.000692262
-0.000710416
-0.000727612
-0.00074389
-0.000759292
-0.000773868
-0.000787683
-0.000800819
-0.000813366
-0.000825412
-0.000837032
-0.000848284
-0.000859207
-0.000869837
-0.000880221
-0.000890467
-0.000900784
-0.00091144
-0.000922632
-0.000934297
-0.000946161
-0.000958078
-0.000970235
-0.000982784
-0.000995479
-0.00100801
-0.00102029
-0.00103218
-0.00104337
-0.00105359
-0.00106267
-0.00107065
-0.00107783
-0.00108464
-0.00109152
-0.00109886
-0.00110713
-0.00111661
-0.00112746
-0.00113936
9.33426e-05
6.05336e-05
2.77869e-05
-5.34019e-06
-3.88981e-05
-7.27719e-05
-0.000106772
-0.000140742
-0.000174603
-0.000208326
-0.00024189
-0.000275256
-0.000308364
-0.000341144
-0.000373522
-0.000405431
-0.000436812
-0.000467612
-0.000497776
-0.000527239
-0.000555926
-0.000583758
-0.000610661
-0.000636571
-0.000661439
-0.000685229
-0.000707918
-0.000729493
-0.000749948
-0.000769292
-0.000787549
-0.000804756
-0.000820957
-0.000836202
-0.000850562
-0.000864122
-0.000876986
-0.000889266
-0.000901087
-0.000912578
-0.000923853
-0.000934994
-0.000946023
-0.000956899
-0.000967571
-0.00097809
-0.000988714
-0.000999904
-0.00101188
-0.00102416
-0.00103599
-0.00104725
-0.00105816
-0.00106849
-0.00107784
-0.00108605
-0.00109303
-0.00109862
-0.00110276
-0.00110551
-0.00110717
-0.00110825
-0.00110945
-0.00111144
-0.00111488
-0.0011204
-0.0011282
-0.00113799
-0.00114898
3.68213e-05
1.74653e-06
-3.34849e-05
-6.899e-05
-0.000104866
-0.000141073
-0.00017743
-0.000213762
-0.000249971
-0.000286016
-0.000321869
-0.00035748
-0.000392779
-0.00042768
-0.000462088
-0.000495911
-0.00052906
-0.000561446
-0.000593004
-0.000623696
-0.000653486
-0.000682308
-0.000710086
-0.000736735
-0.000762175
-0.00078634
-0.000809193
-0.000830709
-0.000850867
-0.000869677
-0.000887167
-0.000903379
-0.000918363
-0.000932187
-0.000944936
-0.000956719
-0.000967678
-0.000977988
-0.000987858
-0.000997521
-0.00100721
-0.00101711
-0.00102731
-0.0010378
-0.00104843
-0.00105891
-0.001069
-0.0010788
-0.00108861
-0.00109808
-0.00110643
-0.00111336
-0.00111904
-0.00112357
-0.00112696
-0.00112921
-0.00113033
-0.00113036
-0.00112942
-0.00112764
-0.00112523
-0.00112258
-0.00112038
-0.0011195
-0.00112092
-0.00112537
-0.00113253
-0.00114143
-0.00115137
-4.60651e-06
-4.15535e-05
-7.8247e-05
-0.000115542
-0.0001534
-0.000191569
-0.000229825
-0.000268025
-0.000306096
-0.000344004
-0.000381719
-0.000419191
-0.000456348
-0.000493106
-0.000529385
-0.000565121
-0.000600244
-0.000634629
-0.000668122
-0.000700616
-0.000732068
-0.000762464
-0.000791779
-0.000819948
-0.000846833
-0.000872288
-0.000896209
-0.000918545
-0.000939295
-0.000958482
-0.000976142
-0.000992334
-0.00100715
-0.00102067
-0.00103303
-0.00104432
-0.00105466
-0.00106417
-0.00107298
-0.00108127
-0.0010892
-0.00109693
-0.0011044
-0.00111162
-0.00111863
-0.00112538
-0.00113157
-0.00113691
-0.00114122
-0.00114442
-0.0011465
-0.00114759
-0.00114779
-0.00114728
-0.00114623
-0.00114475
-0.00114285
-0.00114049
-0.00113765
-0.00113435
-0.00113071
-0.001127
-0.00112376
-0.0011217
-0.00112163
-0.00112419
-0.00112901
-0.00113503
-0.00114221
-9.98831e-05
-0.000139487
-0.000179652
-0.000220252
-0.000261274
-0.000302627
-0.00034407
-0.000385384
-0.000426472
-0.000467315
-0.000507887
-0.000548122
-0.000587915
-0.000627145
-0.000665685
-0.000703409
-0.000740199
-0.000775976
-0.000810653
-0.000844067
-0.000876019
-0.000906346
-0.000934945
-0.000961775
-0.000986879
-0.00101028
-0.00103194
-0.00105175
-0.00106962
-0.00108547
-0.00109927
-0.00111104
-0.00112083
-0.00112873
-0.00113491
-0.00113952
-0.00114279
-0.00114494
-0.00114623
-0.00114692
-0.00114728
-0.00114753
-0.00114784
-0.00114832
-0.00114905
-0.00115004
-0.00115121
-0.00115242
-0.00115347
-0.00115421
-0.0011545
-0.00115426
-0.00115345
-0.00115212
-0.00115035
-0.00114828
-0.00114595
-0.00114336
-0.00114044
-0.00113715
-0.00113353
-0.0011298
-0.00112625
-0.00112329
-0.0011216
-0.00112183
-0.00112417
-0.00112853
-0.00113586
0.000218515
0.000224262
0.000230568
0.000237368
0.000244674
0.000252549
0.000261132
0.000270237
0.000279845
0.000289943
0.000300658
0.000312048
0.000323716
0.000336414
0.000348625
0.000361649
0.000374298
0.000387553
0.000400645
0.00041354
0.000427019
0.000439188
0.000451154
0.000462069
0.000472347
0.000481985
0.000490112
0.000496974
0.000503038
0.000507636
0.000510351
0.000511749
0.000512025
0.000511271
0.000508559
0.000504651
0.000499825
0.000493731
0.000486583
0.000478938
0.000470423
0.000461417
0.00045228
0.000443137
0.000433178
0.000423705
0.000413857
0.000404357
0.000394802
0.00038544
0.000376418
0.000367625
0.00035931
0.000351331
0.000343717
0.000336059
0.000328853
0.000321873
0.000315216
0.000216473
0.000222506
0.000229115
0.000236247
0.000243944
0.00025222
0.000261121
0.000270615
0.00028071
0.00029138
0.000302608
0.000314436
0.000326753
0.000339565
0.000352778
0.000366192
0.000379935
0.000393682
0.000407575
0.000421131
0.000434662
0.000447808
0.000460247
0.00047184
0.000482589
0.000492521
0.00050121
0.000508427
0.000514622
0.00051936
0.000522243
0.000523863
0.000524118
0.00052296
0.000520189
0.000516042
0.00051081
0.000504503
0.000497082
0.000488879
0.000480107
0.000470771
0.000461033
0.000450944
0.000440731
0.000430508
0.000420289
0.000410235
0.000400285
0.000390534
0.000381078
0.000371913
0.00036302
0.000354526
0.000346304
0.000338455
0.000330955
0.00032377
0.00031688
0.000214631
0.000220965
0.000227851
0.000235306
0.000243355
0.000252021
0.000261309
0.00027122
0.000281766
0.000292936
0.000304705
0.000317038
0.000329915
0.000343287
0.000357085
0.000371284
0.000385718
0.00040025
0.000414768
0.000429081
0.00044314
0.000456862
0.000469958
0.000482202
0.000493558
0.000503892
0.000512957
0.000520638
0.000527062
0.00053191
0.000535095
0.000536821
0.000536981
0.0005356
0.000532623
0.000528254
0.000522643
0.000515948
0.000508199
0.000499635
0.000490362
0.000480442
0.000470073
0.000459422
0.000448644
0.000437848
0.000427066
0.000416413
0.00040594
0.000395687
0.000385719
0.000376037
0.00036667
0.000357642
0.000349002
0.000340738
0.000332827
0.000325271
0.000318048
0.000212576
0.000219205
0.000226418
0.000234221
0.000242645
0.000251711
0.000261428
0.000271802
0.000282833
0.000294518
0.000306842
0.000319775
0.000333287
0.000347319
0.000361791
0.000376656
0.000391751
0.000407002
0.000422231
0.000437319
0.000452117
0.000466468
0.0004802
0.000493086
0.000505036
0.000515858
0.000525352
0.000533444
0.000540135
0.000545162
0.000548559
0.000550351
0.000550466
0.000548958
0.000545781
0.000541152
0.000535184
0.000528038
0.000519818
0.000510729
0.000500863
0.000490351
0.000479407
0.000468201
0.000456814
0.000445387
0.000433984
0.000422703
0.000411622
0.000400784
0.000390237
0.00038001
0.000370139
0.000360635
0.000351519
0.000342788
0.00033444
0.000326481
0.000318895
0.000209992
0.000216934
0.000224497
0.00023268
0.000241516
0.000251022
0.000261212
0.000272093
0.000283665
0.000295922
0.000308851
0.000322426
0.00033661
0.000351342
0.000366543
0.000382123
0.000397964
0.000413967
0.000429974
0.000445841
0.000461405
0.000476478
0.000490888
0.000504434
0.00051698
0.000528334
0.000538308
0.000546798
0.000553776
0.000559021
0.000562575
0.000564422
0.000564508
0.000562879
0.000559503
0.000554584
0.000548241
0.000540629
0.000531885
0.000522201
0.000511723
0.000500613
0.000489056
0.000477206
0.00046517
0.000453079
0.000441029
0.00042911
0.000417398
0.00040595
0.000394812
0.000384025
0.000373616
0.000363604
0.000353999
0.000344807
0.000336029
0.000327662
0.000319685
0.000206869
0.000214141
0.000222067
0.000230646
0.000239913
0.000249885
0.000260578
0.000271999
0.000284151
0.000297027
0.00031061
0.000324872
0.000339772
0.000355249
0.000371226
0.000387604
0.00040427
0.000421099
0.000437938
0.000454624
0.000470989
0.000486843
0.000501995
0.000516244
0.000529426
0.000541352
0.000551837
0.00056075
0.00056804
0.000573523
0.00057723
0.000579128
0.000579174
0.000577402
0.000573802
0.000568566
0.000561822
0.000553731
0.00054445
0.000534171
0.00052307
0.000511321
0.000499096
0.000486552
0.000473824
0.00046104