/*--------------------------------*- C++ -*----------------------------------*\
| =========                 |                                                 |
| \\      /  F ield         | OpenFOAM: The Open Source CFD Toolbox           |
|  \\    /   O peration     | Version:  2312                                  |
|   \\  /    A nd           | Website:  www.openfoam.com                      |
|    \\/     M anipulation  |                                                 |
\*---------------------------------------------------------------------------*/
FoamFile
{
    version     2.0;
    format      ascii;
    arch        "LSB;label=32;scalar=64";
    class       surfaceScalarField;
    location    "1700";
    object      phi;
}
// * * * * * * * * * * * * * * * * * * * * * * * * * * * * * * * * * * * * * //

dimensions      [0 3 -1 0 0 0 0];

oriented        oriented;

internalField   nonuniform List<scalar> 
116611
(
0.00104283
0.000440455
-0.00102721
-0.000456078
0.0010584
0.000437053
-0.000452622
0.00107375
0.000433299
-0.000448647
0.00108899
0.000429206
-0.00044445
0.00110427
0.00042492
-0.000440195
0.00111958
0.00042031
-0.00043562
0.00113464
0.000415418
-0.000430483
0.00114963
0.000410203
-0.000425193
0.00116404
0.000404487
-0.000418898
0.00117832
0.000398364
-0.000412641
0.00119246
0.000391883
-0.000406027
0.00120639
0.000385027
-0.000398952
0.00121985
0.00037772
-0.000391182
0.00123286
0.00036992
-0.000382926
0.00124548
0.000361636
-0.000374259
0.00125779
0.000352932
-0.000365238
0.00126991
0.000343721
-0.000355849
0.00128163
0.000334107
-0.000345825
0.00129295
0.000323868
-0.000335185
0.00130383
0.000313235
-0.000324113
0.00131434
0.000301983
-0.000312492
0.00132413
0.000290178
-0.000299977
0.00133345
0.000277799
-0.000287119
0.00134243
0.000264979
-0.000273957
0.00135091
0.000251591
-0.000260073
0.00135897
0.000237633
-0.000245688
0.00136641
0.000223013
-0.000230453
0.00137331
0.000207912
-0.000214818
0.00137997
0.000192253
-0.000198905
0.00138583
0.000175951
-0.00018181
0.00139101
0.000159052
-0.000164237
0.0013957
0.000141444
-0.00014613
0.00139963
0.000123194
-0.000127129
0.00140303
0.000104471
-0.000107871
0.00140582
8.50408e-05
-8.78327e-05
0.00140789
6.50883e-05
-6.71514e-05
0.0014097
4.44827e-05
-4.6292e-05
0.00141029
2.31078e-05
-2.37042e-05
0.0014102
1.13183e-06
-1.0407e-06
0.00140915
-2.16628e-05
2.27096e-05
0.00140747
-4.4919e-05
4.66004e-05
0.00140528
-6.88528e-05
7.10469e-05
0.00140158
-9.36363e-05
9.73344e-05
0.00139723
-0.000118828
0.000123179
0.00139174
-0.000144699
0.000150192
0.00138555
-0.000171014
0.000177202
0.0013779
-0.000198062
0.000205709
0.00136916
-0.000225439
0.000234183
0.00135947
-0.000253165
0.000262858
0.00134863
-0.00028137
0.000292208
0.00133646
-0.000310049
0.000322211
0.001323
-0.000339015
0.000352476
0.0013081
-0.000368251
0.000383156
0.00129163
-0.000397653
0.000414119
0.00127335
-0.000427026
0.00044531
0.00125426
-0.000455909
0.000474999
0.00123303
-0.000484799
0.000506031
0.00121062
-0.000512985
0.000535388
0.00118679
-0.000540528
0.000564361
0.00116133
-0.00056738
0.00059284
0.00113362
-0.000593649
0.000621361
0.001104
-0.000618291
0.000647906
0.00107312
-0.000640898
0.000671779
0.00104014
-0.000661864
0.000694848
0.0010047
-0.000680704
0.00071614
0.000968966
-0.000695779
0.000731516
0.000931033
-0.000707816
0.000745749
0.000889318
-0.000717563
0.000759278
-0.000718515
0.000843922
0.000763912
0.001029
0.000424672
-0.00101322
0.00104458
0.000421473
0.00105996
0.000417921
0.00107513
0.00041403
0.00109024
0.000409812
0.00110524
0.000405313
0.00112015
0.000400505
0.00113497
0.000395384
0.00114954
0.000389919
0.00116385
0.000384058
0.00117792
0.000377806
0.00119178
0.00037117
0.00120537
0.000364124
0.00121864
0.000356656
0.00123151
0.00034876
0.00124406
0.000340386
0.00125622
0.000331556
0.00126809
0.000322246
0.0012795
0.000312451
0.00129059
0.000302148
0.00130123
0.00029134
0.0013114
0.000280015
0.00132104
0.000268155
0.00133024
0.000255779
0.00133897
0.000242861
0.00134723
0.000229372
0.00135491
0.000215332
0.00136209
0.000200735
0.00136877
0.000185565
0.00137488
0.00016985
0.00138041
0.000153514
0.00138532
0.000136541
0.00138953
0.000118979
0.00139316
0.000100839
0.0013961
8.21056e-05
0.00139842
6.27699e-05
0.00140008
4.28247e-05
0.00140091
2.22732e-05
0.00140098
1.05944e-06
0.00140018
-2.08556e-05
0.00139861
-4.33561e-05
0.00139621
-6.6455e-05
0.00139278
-9.02013e-05
0.00138846
-0.000114511
0.00138312
-0.000139362
0.00137683
-0.000164716
0.00136936
-0.000190599
0.00136084
-0.000216914
0.00135126
-0.000243591
0.00134054
-0.00027065
0.00132857
-0.000298077
0.00131533
-0.000325774
0.00130074
-0.000353664
0.00128473
-0.000381643
0.00126726
-0.000409551
0.00124851
-0.000437161
0.0012282
-0.000464483
0.00120648
-0.000491272
0.00118333
-0.000517374
0.00115864
-0.000542694
0.00113207
-0.000567074
0.0011038
-0.000590026
0.00107409
-0.000611183
0.00104265
-0.000630424
0.00100929
-0.000647349
0.000974581
-0.000661069
0.000938146
-0.000671381
0.000899852
-0.000679269
-0.000680003
0.00086134
0.00101513
0.000408862
-0.000999323
0.00103078
0.000405822
0.00104626
0.000402448
0.00106153
0.000398753
0.00107662
0.000394729
0.00109154
0.000390386
0.00110633
0.000385723
0.00112097
0.000380737
0.00113546
0.000375427
0.00114975
0.000369772
0.00116381
0.00036375
0.00117762
0.00035735
0.00119119
0.00035056
0.00120448
0.000343367
0.00121748
0.000335763
0.00123014
0.000327725
0.00124245
0.000319242
0.0012544
0.000310297
0.00126597
0.000300881
0.00127714
0.000290979
0.00128789
0.000280589
0.00129821
0.000269698
0.00130807
0.000258297
0.00131746
0.000246381
0.00132638
0.000233943
0.00133479
0.000220967
0.00134267
0.000207447
0.00135003
0.000193378
0.00135684
0.000178756
0.00136311
0.000163574
0.00136881
0.000147817
0.00137388
0.000131476
0.0013783
0.000114553
0.00138208
9.70575e-05
0.0013852
7.89899e-05
0.00138763
6.03369e-05
0.00138935
4.11023e-05
0.00139032
2.13051e-05
0.0013905
8.82376e-07
0.00138985
-2.02059e-05
0.00138837
-4.18804e-05
0.00138605
-6.41267e-05
0.0013828
-8.69542e-05
0.00137862
-0.00011033
0.00137347
-0.000134214
0.00136734
-0.000158584
0.00136016
-0.000183423
0.00135193
-0.000208682
0.00134264
-0.000234299
0.00133224
-0.000260251
0.00132067
-0.000286504
0.00130788
-0.000312985
0.00129382
-0.000339607
0.00127844
-0.000366265
0.00126171
-0.000392821
0.00124367
-0.000419117
0.00122423
-0.000445046
0.0012034
-0.000470444
0.00118117
-0.000495139
0.00115745
-0.000518974
0.00113213
-0.000541754
0.00110525
-0.000563146
0.00107689
-0.000582824
0.00104698
-0.000600511
0.00101542
-0.00061579
0.000982402
-0.000628051
0.000948038
-0.000637017
0.000912543
-0.000643774
-0.000644044
0.000876584
0.00100178
0.00039314
-0.000986056
0.0010174
0.000390197
0.0010329
0.000386953
0.00104823
0.000383419
0.00106338
0.000379581
0.00107834
0.000375429
0.00109311
0.000370955
0.00110769
0.000366154
0.00112209
0.000361023
0.00113631
0.000355558
0.00115031
0.000349747
0.00116409
0.000343576
0.00117761
0.000337032
0.00119088
0.000330103
0.00120386
0.000322776
0.00121655
0.000315042
0.00122891
0.000306883
0.00124092
0.000298287
0.00125256
0.00028924
0.00126381
0.00027973
0.00127465
0.000269747
0.00128507
0.00025928
0.00129504
0.000248323
0.00130456
0.000236866
0.0013136
0.000224903
0.00132214
0.000212423
0.00133017
0.000199417
0.00133767
0.000185878
0.00134462
0.000171803
0.00135102
0.000157181
0.00135682
0.000142009
0.00136202
0.000126279
0.00136659
0.000109988
0.0013705
9.31415e-05
0.00137375
7.57389e-05
0.00137632
5.77739e-05
0.00137817
3.92504e-05
0.00137927
2.01986e-05
0.00137961
5.50893e-07
0.00137913
-1.97353e-05
0.00137784
-4.05875e-05
0.0013757
-6.1989e-05
0.00137268
-8.39309e-05
0.00136874
-0.000106391
0.00136387
-0.000129338
0.00135803
-0.000152747
0.0013512
-0.00017659
0.00134334
-0.000200825
0.00133444
-0.000225402
0.00132447
-0.00025028
0.00131338
-0.000275411
0.00130112
-0.000300727
0.00128766
-0.000326142
0.00127294
-0.000351553
0.00125696
-0.000376836
0.00123969
-0.000401852
0.00122112
-0.000426469
0.00120121
-0.000450535
0.00117995
-0.000473878
0.00115729
-0.000496323
0.00113321
-0.000517665
0.00110769
-0.000537628
0.00108077
-0.000555904
0.00105241
-0.000572156
0.00102259
-0.000585971
0.000991462
-0.00059692
0.000959347
-0.000604902
0.000926551
-0.000610978
-0.000610668
0.000893175
0.000989104
0.000377506
-0.00097347
0.00100465
0.000374649
0.0010201
0.000371508
0.00103541
0.000368101
0.00105058
0.000364416
0.00106557
0.000360439
0.00108037
0.000356157
0.00109496
0.000351559
0.00110935
0.000346635
0.00112353
0.00034138
0.00113749
0.000335786
0.00115122
0.000329844
0.00116471
0.000323544
0.00117794
0.000316875
0.00119089
0.000309824
0.00120355
0.000302382
0.0012159
0.000294534
0.00122791
0.00028627
0.00123958
0.000277576
0.00125087
0.000268441
0.00126176
0.000258852
0.00127224
0.000248801
0.00128229
0.000238277
0.00129188
0.000227271
0.00130101
0.000215776
0.00130965
0.000203782
0.00131778
0.000191282
0.00132539
0.000178268
0.00133246
0.000164735
0.00133897
0.000150675
0.00134489
0.000136084
0.00135022
0.000120956
0.00135491
0.00010529
0.00135897
8.9086e-05
0.00136236
7.23446e-05
0.00136508
5.50619e-05
0.00136708
3.72449e-05
0.00136835
1.89271e-05
0.00136887
3.46346e-08
0.0013686
-1.94691e-05
0.00136753
-3.9515e-05
0.00136563
-6.00863e-05
0.00136287
-8.11686e-05
0.00135922
-0.000102742
0.00135466
-0.00012478
0.00134917
-0.000147254
0.00134271
-0.000170133
0.00133526
-0.000193379
0.00132681
-0.000216944
0.00131731
-0.000240781
0.00130673
-0.000264834
0.00129504
-0.000289034
0.00128219
-0.000313299
0.00126817
-0.000337527
0.00125293
-0.000361602
0.00123648
-0.000385396
0.00121878
-0.000408771
0.00119982
-0.000431578
0.0011796
-0.00045365
0.00115808
-0.000474807
0.00113526
-0.000494844
0.00111113
-0.0005135
0.00108569
-0.000530469
0.00105894
-0.000545398
0.0010309
-0.000557931
0.0010018
-0.000567822
0.00097203
-0.000575132
0.000941743
-0.000580691
-0.000579556
0.000910631
0.000977026
0.000361882
-0.000961401
0.000992535
0.000359139
0.00100793
0.000356113
0.0010232
0.000352828
0.00103834
0.00034928
0.00105332
0.000345459
0.00106812
0.000341352
0.00108274
0.000336947
0.00109714
0.000332232
0.00111132
0.000327197
0.00112528
0.000321832
0.00113899
0.000316129
0.00115246
0.000310079
0.00116566
0.000303672
0.00117859
0.000296898
0.00119122
0.000289747
0.00120355
0.000282206
0.00121555
0.000274267
0.00122721
0.000265916
0.00123851
0.000257144
0.00124942
0.000247939
0.00125993
0.00023829
0.00127002
0.000228188
0.00127967
0.000217624
0.00128886
0.000206588
0.00129757
0.000195072
0.00130578
0.000183069
0.00131348
0.000170571
0.00132064
0.000157571
0.00132725
0.000144065
0.00133329
0.000130047
0.00133873
0.000115514
0.00134356
0.000100462
0.00134775
8.48915e-05
0.00135129
6.88031e-05
0.00135416
5.21939e-05
0.00135633
3.50735e-05
0.00135779
1.74746e-05
0.0013585
-6.82894e-07
0.00135846
-1.94235e-05
0.00135763
-3.86826e-05
0.00135598
-5.84439e-05
0.00135351
-7.86915e-05
0.00135017
-9.94054e-05
0.00134595
-0.000120561
0.00134083
-0.000142129
0.00133477
-0.000164077
0.00132776
-0.000186367
0.00131977
-0.000208953
0.00131077
-0.000231783
0.00130073
-0.0002548
0.00128963
-0.000277933
0.00127744
-0.000301101
0.00126412
-0.000324208
0.00124966
-0.000347141
0.00123404
-0.000369779
0.00121725
-0.000391986
0.00119929
-0.000413616
0.00118015
-0.000434508
0.00115982
-0.000454482
0.00113831
-0.000473328
0.00111559
-0.000490785
0.00109167
-0.000506549
0.00106657
-0.000520294
0.00104041
-0.000531772
0.00101348
-0.000540893
0.000986062
-0.000547714
0.000957922
-0.000552551
-0.000549759
0.000928125
0.000965421
0.000346207
-0.000949746
0.000980954
0.000343606
0.000996348
0.000340719
0.0010116
0.000337574
0.00102671
0.00033417
0.00104167
0.000330503
0.00105646
0.000326563
0.00107106
0.00032234
0.00108547
0.000317824
0.00109966
0.000313004
0.00111363
0.000307869
0.00112735
0.000302408
0.00114081
0.000296613
0.00115401
0.000290473
0.00116693
0.000283979
0.00117956
0.000277122
0.00119187
0.00026989
0.00120387
0.000262274
0.00121552
0.000254264
0.00122681
0.000245849
0.00123773
0.000237019
0.00124826
0.000227764
0.00125837
0.000218075
0.00126805
0.000207942
0.00127729
0.000197356
0.00128605
0.000186309
0.00129432
0.000174793
0.00130209
0.000162801
0.00130934
0.000150327
0.00131604
0.000137365
0.00132217
0.000123911
0.00132773
0.00010996
0.00133268
9.55105e-05
0.00133701
8.05621e-05
0.0013407
6.51149e-05
0.00134372
4.91662e-05
0.00134607
3.27289e-05
0.00134771
1.5832e-05
0.00134864
-1.61115e-06
0.00134883
-1.96086e-05
0.00134824
-3.81019e-05
0.00134688
-5.70755e-05
0.0013447
-7.6513e-05
0.00134169
-9.63941e-05
0.00133782
-0.000116695
0.00133308
-0.000137386
0.00132744
-0.000158435
0.00132087
-0.000179802
0.00131336
-0.000201443
0.00130488
-0.000223305
0.00129541
-0.000245328
0.00128492
-0.000267444
0.00127339
-0.000289571
0.0012608
-0.000311617
0.00124714
-0.000333476
0.00123239
-0.00035503
0.00121655
-0.000376149
0.00119963
-0.000396691
0.00118162
-0.000416498
0.00116252
-0.000435387
0.00114234
-0.000453144
0.00112105
-0.000469503
0.00109869
-0.000484188
0.00107534
-0.000496942
0.00105121
-0.00050764
0.00102655
-0.000516238
0.00100138
-0.000522543
0.000975058
-0.000526225
-0.000520988
0.000946287
0.000954257
0.000330475
-0.000938525
0.000969842
0.00032802
0.000985275
0.000325286
0.00100055
0.000322297
0.00101567
0.000319054
0.00103062
0.000315551
0.0010454
0.000311784
0.00105999
0.000307744
0.00107439
0.000303423
0.00108859
0.000298812
0.00110255
0.000293901
0.00111628
0.00028868
0.00112976
0.000283138
0.00114297
0.000277266
0.00115589
0.000271054
0.00116852
0.000264491
0.00118084
0.000257569
0.00119284
0.000250278
0.00120449
0.000242608
0.00121579
0.000234549
0.00122672
0.000226091
0.00123726
0.000217225
0.00124739
0.000207942
0.0012571
0.000198233
0.00126637
0.000188089
0.00127518
0.000177502
0.00128351
0.000166465
0.00129134
0.00015497
0.00129865
0.000143011
0.00130544
0.000130583
0.00131167
0.00011768
0.00131733
0.000104301
0.0013224
9.04411e-05
0.00132686
7.61015e-05
0.00133069
6.12816e-05
0.00133388
4.59787e-05
0.0013364
3.02094e-05
0.00133823
1.39969e-05
0.00133937
-2.7529e-06
0.00133979
-2.00278e-05
0.00133947
-3.77771e-05
0.00133838
-5.59862e-05
0.0013365
-7.46384e-05
0.00133382
-9.37137e-05
0.00133032
-0.000113188
0.00132596
-0.000133032
0.00132074
-0.000153214
0.00131463
-0.000173693
0.00130761
-0.000194426
0.00129967
-0.000215359
0.00129077
-0.000236435
0.00128091
-0.000257584
0.00127007
-0.000278728
0.00125823
-0.000299778
0.00124539
-0.000320633
0.00123154
-0.00034118
0.00121669
-0.000361295
0.00120083
-0.000380838
0.00118399
-0.000399651
0.00116615
-0.000417547
0.00114731
-0.000434309
0.00112749
-0.000449687
0.00110677
-0.000463466
0.00108531
-0.000475481
0.00106335
-0.000485677
0.00104097
-0.000493862
0.00101785
-0.000499415
0.000993001
-0.000501381
-0.000493629
0.000965642
0.000943595
0.000314712
-0.000927832
0.000959221
0.000312394
0.000974699
0.000309809
0.000990016
0.00030698
0.00100516
0.000303905
0.00102014
0.000300578
0.00103493
0.000296993
0.00104953
0.000293144
0.00106393
0.000289023
0.00107812
0.000284622
0.00109209
0.000279933
0.00110582
0.000274948
0.0011193
0.000269657
0.00113252
0.000264049
0.00114545
0.000258117
0.0011581
0.000251849
0.00117043
0.000245236
0.00118244
0.000238268
0.00119411
0.000230937
0.00120543
0.000223232
0.00121637
0.000215144
0.00122693
0.000206665
0.00123709
0.000197784
0.00124683
0.000188494
0.00125613
0.000178786
0.00126498
0.000168653
0.00127336
0.000158086
0.00128125
0.000147079
0.00128864
0.000135626
0.0012955
0.000123721
0.00130182
0.00011136
0.00130758
9.85401e-05
0.00131276
8.52579e-05
0.00131735
7.15136e-05
0.00132133
5.73064e-05
0.00132467
4.26339e-05
0.00132736
2.75164e-05
0.00132939
1.197e-05
0.00133075
-4.10765e-06
0.0013314
-2.06806e-05
0.00133133
-3.77083e-05
0.00133052
-5.51765e-05
0.00132895
-7.30688e-05
0.0013266
-9.13651e-05
0.00132346
-0.000110042
0.00131949
-0.00012907
0.0013147
-0.000148417
0.00130905
-0.000168045
0.00130253
-0.000187909
0.00129513
-0.000207958
0.00128683
-0.000228135
0.00127762
-0.000248372
0.00126749
-0.000268594
0.00125642
-0.000288715
0.00124443
-0.000308639
0.00123151
-0.000328258
0.00121766
-0.000347451
0.0012029
-0.000366078
0.00118723
-0.000383981
0.00117066
-0.000400971
0.00115319
-0.000416846
0.00113491
-0.0004314
0.00111595
-0.000444505
0.00109651
-0.000456049
0.00107675
-0.000465914
0.00105644
-0.000473555
0.00103497
-0.000477946
0.00101134
-0.00047775
-0.000468077
0.00098579
0.000933535
0.000298947
-0.000917769
0.000949175
0.000296754
0.000964677
0.000294307
0.000980027
0.000291631
0.00099521
0.000288721
0.00101022
0.000285572
0.00102504
0.000282174
0.00103966
0.000278521
0.00105407
0.000274606
0.00106828
0.000270421
0.00108225
0.000265959
0.00109599
0.000261211
0.00110947
0.00025617
0.0011227
0.000250826
0.00113564
0.00024517
0.0011483
0.000239194
0.00116065
0.000232888
0.00117267
0.000226242
0.00118436
0.000219247
0.0011957
0.000211894
0.00120667
0.000204173
0.00121726
0.000196077
0.00122745
0.000187595
0.00123722
0.00017872
0.00124657
0.000169443
0.00125546
0.000159757
0.00126389
0.000149654
0.00127184
0.000139128
0.0012793
0.000128172
0.00128624
0.000116782
0.00129264
0.000104953
0.0012985
9.26804e-05
0.0013038
7.99632e-05
0.00130851
6.6801e-05
0.00131263
5.31919e-05
0.00131613
3.91346e-05
0.00131899
2.46526e-05
0.00132121
9.75189e-06
0.00132277
-5.67349e-06
0.00132366
-2.15652e-05
0.00132384
-3.78936e-05
0.00132331
-5.4645e-05
0.00132205
-7.18032e-05
0.00132003
-8.93486e-05
0.00131725
-0.000107258
0.00131368
-0.000125503
0.00130931
-0.000144052
0.00130413
-0.000162867
0.00129813
-0.000181905
0.00129129
-0.000201117
0.0012836
-0.000220446
0.00127505
-0.000239827
0.00126565
-0.000259189
0.00125538
-0.000278449
0.00124426
-0.000297515
0.00123228
-0.000316281
0.00121946
-0.000334628
0.0012058
-0.000352416
0.00119131
-0.000369491
0.00117601
-0.000385676
0.00115997
-0.000400808
0.00114332
-0.000414749
0.00112624
-0.000427425
0.00110887
-0.000438674
0.00109108
-0.00044813
0.00107236
-0.000454828
0.00105196
-0.000457548
0.0010294
-0.000455186
-0.000444487
0.00100581
0.000924159
0.000283194
-0.000908405
0.000939794
0.000281118
0.000955299
0.000278802
0.000970661
0.000276269
0.000985865
0.000273518
0.0010009
0.00027054
0.00101574
0.000267327
0.0010304
0.00026387
0.00104484
0.000260163
0.00105906
0.000256197
0.00107306
0.000251965
0.00108681
0.000247458
0.00110031
0.00024267
0.00111354
0.000237591
0.0011265
0.000232213
0.00113917
0.000226528
0.00115153
0.000220526
0.00116357
0.0002142
0.00117528
0.000207539
0.00118664
0.000200534
0.00119763
0.000193178
0.00120825
0.000185461
0.00121847
0.000177374
0.00122828
0.000168909
0.00123767
0.000160059
0.00124661
0.000150814
0.00125509
0.000141169
0.00126311
0.000131117
0.00127063
0.000120651
0.00127764
0.000109766
0.00128414
9.84577e-05
0.0012901
8.67228e-05
0.0012955
7.45589e-05
0.00130034
6.19657e-05
0.00130459
4.89402e-05
0.00130824
3.54833e-05
0.00131127
2.16208e-05
0.00131368
7.34241e-06
0.00131546
-7.44804e-06
0.00131657
-2.26797e-05
0.00131701
-3.83317e-05
0.00131675
-5.43912e-05
0.00131579
-7.08424e-05
0.00131411
-8.76663e-05
0.00131169
-0.00010484
0.00130853
-0.000122337
0.0013046
-0.000140125
0.0012999
-0.000158168
0.00129442
-0.000176425
0.00128815
-0.000194848
0.00128109
-0.000213382
0.00127323
-0.000231965
0.00126457
-0.000250528
0.00125511
-0.000268992
0.00124486
-0.000287267
0.00123383
-0.00030525
0.00122202
-0.000322822
0.00120946
-0.000339849
0.00119616
-0.000356191
0.00118219
-0.000371707
0.00116767
-0.000386288
0.00115276
-0.00039984
0.00113758
-0.000412246
0.00112205
-0.000423141
0.00110573
-0.00043181
0.00108795
-0.000437052
0.00106832
-0.000437914
0.00104706
-0.000433933
-0.00042454
0.00102712
0.000915515
0.000267452
-0.000899773
0.000931141
0.000265493
0.00094664
0.000263303
0.000961999
0.000260909
0.000977208
0.000258309
0.000992251
0.000255496
0.00100712
0.000252462
0.00102179
0.000249198
0.00103626
0.000245696
0.00105051
0.000241948
0.00106452
0.000237946
0.0010783
0.000233682
0.00109182
0.000229148
0.00110508
0.000224336
0.00111805
0.000219237
0.00113074
0.000213844
0.00114312
0.000208148
0.00115518
0.00020214
0.0011669
0.000195811
0.00117828
0.000189154
0.0011893
0.000182159
0.00119995
0.000174818
0.0012102
0.000167122
0.00122004
0.000159063
0.00122947
0.000150634
0.00123846
0.000141826
0.00124699
0.000132632
0.00125506
0.000123046
0.00126265
0.000113062
0.00126974
0.000102674
0.00127632
9.18779e-05
0.00128238
8.06696e-05
0.00128789
6.90473e-05
0.00129284
5.70101e-05
0.00129723
4.45541e-05
0.00130103
3.1683e-05
0.00130423
1.84234e-05
0.00130683
4.74218e-06
0.00130881
-9.43e-06
0.00131015
-2.40234e-05
0.00131084
-3.90231e-05
0.00131087
-5.44167e-05
0.00131022
-7.01891e-05
0.00130887
-8.6322e-05
0.00130683
-0.000102793
0.00130407
-0.000119577
0.00130059
-0.000136643
0.00129637
-0.000153957
0.00129143
-0.000171477
0.00128574
-0.000189159
0.0012793
-0.000206949
0.00127213
-0.00022479
0.00126421
-0.000242613
0.00125556
-0.000260342
0.00124619
-0.000277889
0.00123609
-0.000295154
0.00122529
-0.000312025
0.00121383
-0.000328384
0.00120176
-0.000344126
0.0011892
-0.000359147
0.00117629
-0.000373371
0.00116311
-0.000386662
0.00114958
-0.000398722
0.00113534
-0.000408901
0.00111979
-0.000416254
0.00110257
-0.00041983
0.00108412
-0.00041947
0.00106575
-0.000415563
-0.000409948
0.00105116
0.000907631
0.000251713
-0.000891892
0.000923251
0.000249872
0.000938745
0.00024781
0.0009541
0.000245554
0.000969307
0.000243103
0.000984352
0.000240451
0.000999222
0.000237591
0.00101391
0.000234514
0.00102839
0.000231213
0.00104266
0.000227679
0.0010567
0.000223904
0.0010705
0.000219881
0.00108405
0.000215601
0.00109733
0.000211056
0.00111033
0.000206237
0.00112303
0.000201136
0.00113544
0.000195746
0.00114752
0.000190057
0.00115927
0.000184061
0.00117067
0.000177749
0.00118172
0.000171114
0.00119239
0.000164147
0.00120267
0.00015684
0.00121255
0.000149183
0.00122202
0.000141171
0.00123105
0.000132794
0.00123964
0.000124046
0.00124776
0.00011492
0.00125541
0.00010541
0.00126258
9.55102e-05
0.00126924
8.52163e-05
0.00127538
7.45243e-05
0.001281
6.3432e-05
0.00128607
5.19376e-05
0.00129059
4.00366e-05
0.00129454
2.77374e-05
0.0012979
1.50622e-05
0.00130068
1.95404e-06
0.00130287
-1.16179e-05
0.00130444
-2.55954e-05
0.00130539
-3.99671e-05
0.00130569
-5.47213e-05
0.00130535
-6.98435e-05
0.00130434
-8.53163e-05
0.00130267
-0.000101118
0.00130032
-0.000117225
0.00129728
-0.000133608
0.00129355
-0.000150232
0.00128914
-0.000167059
0.00128402
-0.000184047
0.00127822
-0.000201144
0.00127172
-0.000218294
0.00126454
-0.000235433
0.00125669
-0.000252484
0.00124816
-0.000269365
0.00123899
-0.000285984
0.00122921
-0.000302247
0.0012189
-0.000318067
0.00120814
-0.000333366
0.00119704
-0.000348055
0.00118568
-0.000362006
0.00117394
-0.000374927
0.00116149
-0.00038627
0.00114781
-0.000395214
0.00113257
-0.000401023
0.00111632
-0.000403575
0.00110073
-0.000403882
0.0010884
-0.000403234
-0.000406518
0.00108497
0.000900531
0.000235973
-0.000884791
0.000916152
0.000234251
0.000931646
0.000232316
0.000947002
0.000230198
0.000962208
0.000227897
0.000977254
0.000225406
0.000992127
0.000222718
0.00100682
0.000219826
0.00102131
0.000216722
0.00103559
0.000213399
0.00104964
0.000209848
0.00106346
0.000206063
0.00107703
0.000202033
0.00109033
0.000197752
0.00110336
0.000193212
0.00111609
0.000188403
0.00112852
0.000183317
0.00114063
0.000177946
0.00115241
0.000172282
0.00116384
0.000166316
0.00117492
0.00016004
0.00118562
0.000153445
0.00119593
0.000146523
0.00120585
0.000139267
0.00121535
0.000131668
0.00122443
0.000123718
0.00123306
0.000115411
0.00124125
0.000106739
0.00124896
9.76961e-05
0.00125619
8.8277e-05
0.00126293
7.84765e-05
0.00126917
6.82905e-05
0.00127488
5.77169e-05
0.00128007
4.67522e-05
0.00128471
3.53926e-05
0.0012888
2.36513e-05
0.00129232
1.15401e-05
0.00129529
-1.0169e-06
0.00129768
-1.4007e-05
0.00129947
-2.73905e-05
0.00130067
-4.11581e-05
0.00130124
-5.52989e-05
0.0013012
-6.97992e-05
0.00130053
-8.46423e-05
0.00129921
-9.9808e-05
0.00129726
-0.000115273
0.00129466
-0.000131008
0.00129141
-0.000146983
0.00128752
-0.000163161
0.00128297
-0.0001795
0.00127778
-0.000195952
0.00127195
-0.000212462
0.00126548
-0.000228969
0.0012584
-0.000245402
0.00125072
-0.000261689
0.00124249
-0.000277755
0.00123378
-0.000293533
0.00122467
-0.000308954
0.00121524
-0.000323936
0.00120551
-0.000338325
0.00119535
-0.000351847
0.00118444
-0.000364015
0.00117233
-0.000374162
0.00115883
-0.000381714
0.0011445
-0.000386698
0.00113107
-0.000390138
0.0011212
-0.000394017
0.00111797
-0.000399999
-0.000411963
0.00112341
0.000894253
0.000220229
-0.000878508
0.000909879
0.000218624
0.000925378
0.000216817
0.000940738
0.000214838
0.000955949
0.000212686
0.000970999
0.000210355
0.000985877
0.00020784
0.00100057
0.000205132
0.00101507
0.000202225
0.00102936
0.000199111
0.00104342
0.000195782
0.00105725
0.000192232
0.00107084
0.000188451
0.00108416
0.000184432
0.0010972
0.000180167
0.00110996
0.000175647
0.00112241
0.000170864
0.00113455
0.00016581
0.00114635
0.000160476
0.00115782
0.000154853
0.00116892
0.000148934
0.00117966
0.00014271
0.00119001
0.000136173
0.00119996
0.000129313
0.0012095
0.000122125
0.00121862
0.000114598
0.00122731
0.000106727
0.00123554
9.85046e-05
0.00124331
8.99233e-05
0.00125061
8.09778e-05
0.00125743
7.16625e-05
0.00126374
6.19735e-05
0.00126955
5.19078e-05
0.00127484
4.14604e-05
0.00127961
3.06296e-05
0.00128382
1.94325e-05
0.0012875
7.86211e-06
0.00129065
-4.1601e-06
0.00129323
-1.6587e-05
0.00129523
-2.93982e-05
0.00129666
-4.25855e-05
0.0012975
-5.61386e-05
0.00129775
-7.00447e-05
0.00129739
-8.4288e-05
0.00129643
-9.88491e-05
0.00129487
-0.000113706
0.00129269
-0.000128832
0.0012899
-0.000144197
0.00128651
-0.000159767
0.00128251
-0.000175501
0.00127791
-0.000191354
0.00127272
-0.000207275
0.00126696
-0.000223208
0.00126066
-0.000239094
0.00125385
-0.00025488
0.0012466
-0.000270508
0.00123899
-0.000285918
0.00123105
-0.000301018
0.00122276
-0.000315651
0.00121397
-0.000329533
0.00120437
-0.000342247
0.00119363
-0.00035327
0.00118168
-0.000362218
0.00116925
-0.000369281
0.0011581
-0.000375546
0.0011509
-0.000382936
0.00115029
-0.000393411
0.00115738
-0.000407084
-0.000427725
0.00117314
0.000888842
0.000204475
-0.000873088
0.000904477
0.000202989
0.000919984
0.00020131
0.000935352
0.000199469
0.000950572
0.000197466
0.000965631
0.000195297
0.000980517
0.000192954
0.000995219
0.00019043
0.00100972
0.000187719
0.00102402
0.000184814
0.0010381
0.000181706
0.00105194
0.00017839
0.00106553
0.000174856
0.00107887
0.000171098
0.00109193
0.000167106
0.0011047
0.000162874
0.00111717
0.000158392
0.00112933
0.000153652
0.00114116
0.000148646
0.00115265
0.000143366
0.00116378
0.000137802
0.00117454
0.000131947
0.00118493
0.000125791
0.00119491
0.000119327
0.00120449
0.000112545
0.00121365
0.000105439
0.00122238
9.80008e-05
0.00123066
9.02224e-05
0.00123849
8.20972e-05
0.00124585
7.36188e-05
0.00125273
6.47815e-05
0.00125912
5.5581e-05
0.00126501
4.60131e-05
0.0012704
3.60717e-05
0.00127527
2.57592e-05
0.00127961
1.50913e-05
0.00128344
4.03427e-06
0.00128674
-7.46172e-06
0.0012895
-1.93441e-05
0.00129171
-3.16039e-05
0.00129335
-4.42337e-05
0.00129444
-5.72242e-05
0.00129496
-7.05633e-05
0.00129491
-8.42362e-05
0.00129428
-9.82248e-05
0.00129308
-0.000112508
0.00129131
-0.000127061
0.00128897
-0.000141855
0.00128606
-0.000156857
0.00128259
-0.00017203
0.00127857
-0.000187333
0.00127402
-0.000202723
0.00126896
-0.000218154
0.00126345
-0.000233584
0.00125754
-0.000248967
0.00125127
-0.000264237
0.00124465
-0.000279297
0.00123761
-0.000293976
0.00122997
-0.000308012
0.00122147
-0.000321031
0.0012119
-0.000332682
0.00120143
-0.000342802
0.00119095
-0.000351739
0.00118235
-0.000360678
0.00117819
-0.000371388
0.00118067
-0.000385417
0.00119018
-0.000402922
0.00120465
-0.000421546
-0.000442422
0.00121934
0.000884339
0.000188705
-0.000868569
0.000899989
0.000187339
0.000915511
0.000185789
0.000930893
0.000184086
0.000946126
0.000182233
0.000961198
0.000180225
0.000976097
0.000178055
0.000990812
0.000175716
0.00100533
0.000173201
0.00101964
0.000170504
0.00103373
0.000167618
0.00104758
0.000164535
0.00106119
0.000161249
0.00107454
0.00015775
0.00108761
0.000154032
0.0011004
0.000150086
0.00111289
0.000145904
0.00112506
0.000141478
0.00113691
0.0001368
0.00114841
0.00013186
0.00115956
0.00012665
0.00117035
0.000121161
0.00118075
0.000115385
0.00119077
0.000109314
0.00120037
0.000102938
0.00120956
9.62495e-05
0.00121833
8.92401e-05
0.00122665
8.19023e-05
0.00123451
7.42285e-05
0.00124192
6.62118e-05
0.00124886
5.78462e-05
0.00125531
4.91267e-05
0.00126128
4.00473e-05
0.00126675
3.06022e-05
0.00127171
2.0799e-05
0.00127615
1.06429e-05
0.00128011
7.5377e-08
0.00128356
-1.09039e-05
0.00128647
-2.22609e-05
0.00128886
-3.39904e-05
0.00129071
-4.6086e-05
0.00129203
-5.85393e-05
0.0012928
-7.13388e-05
0.00129304
-8.44707e-05
0.00129273
-9.79181e-05
0.00129188
-0.000111661
0.0012905
-0.000125676
0.00128858
-0.000139937
0.00128614
-0.000154414
0.00128318
-0.000169074
0.00127973
-0.000183886
0.00127582
-0.000198814
0.00127149
-0.000213823
0.00126678
-0.000228867
0.00126168
-0.000243876
0.00125619
-0.000258737
0.00125017
-0.000273281
0.00124346
-0.000287271
0.00123588
-0.00030043
0.0012274
-0.000312549
0.00121843
-0.000323708
0.0012101
-0.000334476
0.0012044
-0.000346043
0.00120368
-0.000359956
0.00120953
-0.00037724
0.00122163
-0.000397509
0.00123717
-0.000418463
0.00125214
-0.000436515
-0.000450653
0.00126037
0.000880783
0.000172911
-0.000864989
0.000896456
0.000171666
0.000912
0.000170245
0.000927404
0.000168682
0.000942657
0.00016698
0.000957749
0.000165134
0.000972667
0.000163137
0.0009874
0.000160983
0.00100194
0.000158665
0.00101626
0.000156178
0.00103037
0.000153513
0.00104424
0.000150665
0.00105786
0.000147626
0.00107122
0.000144388
0.00108431
0.000140943
0.00109711
0.000137284
0.00110961
0.000133403
0.0011218
0.000129291
0.00113366
0.000124939
0.00114518
0.000120339
0.00115635
0.000115483
0.00116715
0.000110361
0.00117757
0.000104964
0.0011876
9.92847e-05
0.00119723
9.33127e-05
0.00120644
8.70397e-05
0.00121522