/*--------------------------------*- C++ -*----------------------------------*\
| =========                 |                                                 |
| \\      /  F ield         | OpenFOAM: The Open Source CFD Toolbox           |
|  \\    /   O peration     | Version:  2312                                  |
|   \\  /    A nd           | Website:  www.openfoam.com                      |
|    \\/     M anipulation  |                                                 |
\*---------------------------------------------------------------------------*/
FoamFile
{
    version     2.0;
    format      ascii;
    arch        "LSB;label=32;scalar=64";
    class       volVectorField;
    location    "1700";
    object      U;
}
// * * * * * * * * * * * * * * * * * * * * * * * * * * * * * * * * * * * * * //

dimensions      [0 1 -1 0 0 0 0];

internalField   nonuniform List<vector> 
76025
(
(0.0370006 -0.00499338 0)
(0.0371677 -0.00503067 6.30257e-22)
(0.037335 -0.00506545 0)
(0.0375031 -0.00509545 0)
(0.0376864 -0.00511963 -1.05025e-21)
(0.0378733 -0.00512973 -1.88628e-21)
(0.0380682 -0.00514572 3.16876e-21)
(0.0382658 -0.00514825 -1.30435e-21)
(0.0384518 -0.00515257 -3.68638e-22)
(0.0386375 -0.00514747 3.32345e-22)
(0.0388297 -0.00513451 2.05125e-23)
(0.0390261 -0.00511282 7.57304e-22)
(0.0392193 -0.00508877 -1.0124e-21)
(0.0394062 -0.00505428 0)
(0.0395866 -0.00500918 1.52236e-22)
(0.0397695 -0.00496555 0)
(0.0399515 -0.00490383 0)
(0.0401364 -0.00484488 0)
(0.0403165 -0.0047723 4.93076e-23)
(0.0404946 -0.00469997 1.9296e-23)
(0.0406685 -0.00461379 5.27495e-23)
(0.0408371 -0.00452555 2.14376e-22)
(0.0409989 -0.00442534 -1.66202e-22)
(0.0411591 -0.00431485 -4.43481e-22)
(0.0413169 -0.00420241 -6.0947e-23)
(0.0414729 -0.00408316 -2.76656e-22)
(0.041623 -0.00394686 6.9422e-22)
(0.0417719 -0.00380844 -7.15219e-22)
(0.0419184 -0.00365722 2.60473e-22)
(0.042062 -0.00348958 -2.87679e-22)
(0.0421933 -0.00333996 -3.20695e-22)
(0.0423184 -0.00317876 7.68356e-22)
(0.0424362 -0.00300074 -1.18755e-21)
(0.0425496 -0.00282085 -2.23746e-22)
(0.0426578 -0.00262646 1.15224e-21)
(0.0427608 -0.00243134 1.24464e-23)
(0.0428603 -0.00222353 -2.37708e-22)
(0.0429535 -0.00201009 1.41476e-22)
(0.0430314 -0.00180101 1.59545e-23)
(0.0430955 -0.00158052 -2.06909e-22)
(0.04315 -0.00135543 1.39675e-22)
(0.0432022 -0.00112382 -6.6836e-23)
(0.0432416 -0.000883528 1.34239e-22)
(0.0432608 -0.000644502 -2.6846e-22)
(0.0432652 -0.000395882 -2.82725e-22)
(0.0432586 -0.000143123 5.09162e-22)
(0.0432361 0.000117186 5.49846e-22)
(0.0431874 0.000381349 -1.66334e-21)
(0.0431198 0.000650276 9.92096e-22)
(0.0430374 0.00092124 -7.72846e-23)
(0.042933 0.00119568 -2.52884e-21)
(0.0428017 0.00147313 -9.05822e-22)
(0.0426431 0.00174816 1.0071e-21)
(0.042453 0.00202329 0)
(0.042219 0.00230166 -7.89503e-22)
(0.041954 0.00258911 -8.86698e-22)
(0.0416568 0.00287259 4.56035e-23)
(0.0413119 0.00316492 -7.39563e-22)
(0.0409292 0.00346316 6.21406e-22)
(0.0405053 0.00376281 -1.64234e-21)
(0.0400432 0.00402142 -1.21448e-21)
(0.0394887 0.00431628 -3.37066e-22)
(0.0388733 0.00460858 0)
(0.0382037 0.00489283 1.40759e-21)
(0.0374499 0.00516073 -2.80775e-23)
(0.0365984 0.00546033 1.49406e-22)
(0.035695 0.00575568 2.17137e-22)
(0.0346797 0.00596681 -8.54415e-24)
(0.0335384 0.00627044 -9.07961e-22)
(0.0369427 -0.00531801 6.87789e-22)
(0.0371233 -0.00535768 1.89254e-21)
(0.0373037 -0.00539285 -2.53381e-21)
(0.0374847 -0.00542317 0)
(0.0376687 -0.00544694 2.60315e-21)
(0.0378608 -0.00546364 -1.51154e-22)
(0.0380559 -0.00547418 -1.89814e-21)
(0.0382579 -0.00547831 0)
(0.0384614 -0.0054769 2.1165e-23)
(0.0386631 -0.00546945 -3.46552e-22)
(0.0388649 -0.00545471 3.08675e-22)
(0.0390689 -0.00543248 2.66641e-23)
(0.0392736 -0.00540373 0)
(0.0394782 -0.00536723 0)
(0.0396807 -0.00532282 2.19776e-22)
(0.0398783 -0.00527199 -5.94667e-22)
(0.0400764 -0.00521193 -5.15199e-23)
(0.0402718 -0.00514585 4.59853e-23)
(0.0404665 -0.00507084 -3.20163e-23)
(0.0406575 -0.00498938 -2.00348e-23)
(0.0408477 -0.00489914 1.28668e-22)
(0.0410336 -0.00480214 -1.83691e-22)
(0.0412139 -0.00469646 3.22448e-22)
(0.0413901 -0.00458169 -5.56909e-22)
(0.0415628 -0.00445912 3.91758e-22)
(0.041732 -0.00432925 7.4868e-22)
(0.0418977 -0.00419084 -5.28081e-22)
(0.0420564 -0.00404405 0)
(0.042212 -0.0038886 0)
(0.042364 -0.00372507 -4.09065e-22)
(0.0425084 -0.00355626 0)
(0.0426466 -0.00337916 -4.72672e-22)
(0.0427781 -0.00319313 4.83181e-22)
(0.0429012 -0.00299864 -7.54807e-22)
(0.0430182 -0.00279499 3.34998e-23)
(0.0431275 -0.00258422 -2.62902e-22)
(0.0432307 -0.00236438 0)
(0.0433246 -0.00214064 -6.17159e-22)
(0.0434064 -0.00191119 4.80271e-22)
(0.0434762 -0.00167653 -3.91451e-22)
(0.0435345 -0.0014331 2.40289e-22)
(0.0435825 -0.00118221 5.41691e-25)
(0.0436165 -0.000930915 8.63126e-23)
(0.0436338 -0.000671961 -8.03459e-23)
(0.0436357 -0.000406547 6.63302e-22)
(0.0436216 -0.000133585 -3.35701e-22)
(0.0435897 0.000141363 -3.54848e-22)
(0.0435365 0.000422227 5.87727e-22)
(0.0434631 0.000711317 1.83607e-21)
(0.0433701 0.00100521 -3.90142e-23)
(0.0432542 0.00130091 1.72643e-21)
(0.043112 0.001599 -5.62754e-22)
(0.0429416 0.00189884 -1.56312e-21)
(0.04274 0.00220081 1.08754e-21)
(0.0425037 0.00250517 0)
(0.0422306 0.00281992 2.94048e-21)
(0.0419231 0.00313394 -5.20155e-23)
(0.0415728 0.00345453 -9.12843e-22)
(0.0411804 0.00377898 -9.18004e-22)
(0.0407443 0.00410354 0)
(0.0402544 0.00442524 5.79012e-22)
(0.0397008 0.00474737 1.7795e-21)
(0.0390826 0.00507505 0)
(0.0384012 0.00540235 -7.77098e-22)
(0.0376443 0.00572677 7.36111e-22)
(0.0367909 0.00606364 -5.94103e-22)
(0.035853 0.0064061 2.4978e-22)
(0.0348159 0.00670006 8.77219e-24)
(0.0336906 0.00714844 2.5814e-22)
(0.0368672 -0.00565434 -3.44392e-21)
(0.0370633 -0.00569428 2.08255e-21)
(0.0372592 -0.00573008 -6.12899e-22)
(0.0374567 -0.00576096 2.22342e-21)
(0.0376546 -0.00578537 -2.73348e-21)
(0.037855 -0.00580323 -1.87481e-21)
(0.038058 -0.00581378 2.30112e-21)
(0.0382649 -0.00581742 0)
(0.0384759 -0.00581388 2.54858e-23)
(0.0386893 -0.00580331 0)
(0.0389034 -0.00578549 -2.61746e-22)
(0.0391181 -0.00576039 2.50481e-22)
(0.0393335 -0.00572779 8.74821e-22)
(0.0395493 -0.00568755 -6.95581e-22)
(0.0397651 -0.0056394 1.30662e-22)
(0.0399796 -0.00558308 1.98394e-22)
(0.0401923 -0.00551897 -5.39403e-23)
(0.0404028 -0.00544671 -1.42616e-23)
(0.040611 -0.00536659 1.96364e-22)
(0.0408165 -0.00527802 -1.28222e-22)
(0.041019 -0.00518127 -1.4661e-22)
(0.0412181 -0.00507619 3.55574e-22)
(0.0414133 -0.00496254 -1.32542e-22)
(0.0416046 -0.00483983 -2.61177e-22)
(0.0417917 -0.00470834 0)
(0.0419741 -0.00456846 3.3542e-22)
(0.0421512 -0.00442037 3.44178e-22)
(0.0423228 -0.00426338 -3.11072e-22)
(0.042489 -0.0040976 0)
(0.0426498 -0.00392351 8.92346e-22)
(0.0428047 -0.00374075 -5.12479e-22)
(0.0429527 -0.00354971 -6.78074e-23)
(0.0430926 -0.00335041 0)
(0.0432245 -0.00314196 2.7027e-22)
(0.0433482 -0.00292495 -9.03519e-22)
(0.0434633 -0.00269968 6.23933e-22)
(0.0435691 -0.00246638 0)
(0.0436647 -0.00222486 5.15319e-22)
(0.0437489 -0.0019766 -5.40458e-22)
(0.0438203 -0.00172401 -8.5305e-23)
(0.0438788 -0.00146449 0)
(0.0439243 -0.00119868 -1.8297e-22)
(0.0439555 -0.000927737 -9.19481e-23)
(0.0439709 -0.000649895 8.11331e-23)
(0.0439698 -0.000365643 -5.27027e-22)
(0.0439515 -7.5181e-05 -3.83724e-22)
(0.0439147 0.000220353 6.80078e-22)
(0.0438579 0.000522241 -7.09305e-22)
(0.0437803 0.00083067 7.40813e-22)
(0.0436814 0.00114391 -6.94162e-22)
(0.0435592 0.00146083 -6.37667e-22)
(0.0434112 0.00178169 1.41371e-21)
(0.043235 0.00210636 0)
(0.043028 0.0024349 1.34805e-21)
(0.0427874 0.0027684 1.12102e-22)
(0.0425109 0.00310855 -1.16177e-21)
(0.0421974 0.00345318 -1.10425e-21)
(0.0418426 0.0038037 2.15863e-21)
(0.041444 0.00415954 -1.18272e-22)
(0.0409981 0.00451897 1.06595e-21)
(0.0404996 0.00487926 -2.01321e-21)
(0.0399402 0.00524389 -1.08418e-21)
(0.0393162 0.00561517 -8.13958e-23)
(0.0386247 0.0059901 -7.33739e-22)
(0.0378564 0.00636908 -4.48505e-22)
(0.0369954 0.00675671 -1.84874e-21)
(0.0360467 0.0071552 0)
(0.0350092 0.00751574 -2.82276e-22)
(0.0339202 0.0080236 2.82527e-22)
(0.0367901 -0.00601037 0)
(0.0369973 -0.00605067 6.77849e-22)
(0.0372068 -0.00608665 3.03793e-21)
(0.0374193 -0.00611755 -2.39141e-21)
(0.0376332 -0.00614196 -1.48778e-21)
(0.037848 -0.00615945 2.48378e-21)
(0.0380641 -0.0061696 -4.46393e-22)
(0.0382819 -0.00617227 3.75351e-22)
(0.038502 -0.00616727 3.56799e-22)
(0.0387245 -0.00615451 1.10465e-21)
(0.038949 -0.00613388 -1.06795e-21)
(0.0391748 -0.00610534 -7.46852e-22)
(0.0394014 -0.00606878 2.77408e-22)
(0.0396283 -0.0060241 4.81766e-22)
(0.0398553 -0.00597112 -2.53054e-22)
(0.0400819 -0.00590967 1.19831e-23)
(0.0403074 -0.00583983 3.16404e-23)
(0.0405312 -0.00576145 7.48308e-23)
(0.0407526 -0.00567459 -2.96375e-22)
(0.0409713 -0.00557905 6.65745e-23)
(0.0411867 -0.00547478 1.50008e-22)
(0.0413987 -0.00536158 0)
(0.0416068 -0.00523933 6.04451e-22)
(0.0418107 -0.00510792 -2.82708e-22)
(0.0420101 -0.00496742 -7.03976e-22)
(0.0422044 -0.00481793 -8.20136e-22)
(0.0423932 -0.0046594 1.60343e-21)
(0.0425763 -0.00449169 -8.96245e-22)
(0.0427532 -0.00431488 0)
(0.0429236 -0.00412904 -1.04236e-21)
(0.043087 -0.00393434 -4.9817e-23)
(0.0432427 -0.00373099 1.12986e-21)
(0.0433903 -0.00351882 -6.39201e-22)
(0.0435291 -0.0032976 1.66547e-21)
(0.0436589 -0.00306746 -3.11295e-22)
(0.0437791 -0.00282873 0)
(0.0438892 -0.00258142 0)
(0.0439884 -0.00232465 2.0763e-22)
(0.0440757 -0.00206107 1.91379e-22)
(0.0441498 -0.00179276 1.07571e-22)
(0.0442106 -0.00151737 -3.38694e-24)
(0.0442574 -0.00123489 9.80392e-23)
(0.0442894 -0.000945767 0)
(0.0443054 -0.000649888 -2.18758e-23)
(0.0443045 -0.000347229 0)
(0.0442858 -3.78788e-05 3.68049e-22)
(0.0442484 0.000277798 5.22781e-26)
(0.044191 0.000599884 -1.26365e-21)
(0.0441124 0.000928444 0)
(0.0440115 0.00126293 -7.87334e-22)
(0.0438868 0.00160277 7.83387e-22)
(0.0437362 0.00194787 -1.44324e-21)
(0.0435571 0.00229822 0)
(0.0433474 0.00265405 -4.38407e-21)
(0.0431042 0.00301596 1.08726e-22)
(0.0428252 0.00338485 1.41691e-21)
(0.042508 0.00376048 1.36379e-21)
(0.0421494 0.00414306 0)
(0.0417461 0.00453253 0)
(0.0412944 0.00492808 -1.08623e-21)
(0.0407894 0.00532908 2.05077e-21)
(0.0402255 0.00573668 1.91986e-21)
(0.0395977 0.00615191 0)
(0.0389005 0.00657473 -2.08107e-21)
(0.0381248 0.00700638 0)
(0.0372589 0.00744806 2.01903e-21)
(0.0363103 0.00790287 -7.27613e-22)
(0.0352869 0.00832624 -5.43638e-22)
(0.0342147 0.0088998 -7.18113e-22)
(0.0367149 -0.00638943 0)
(0.0369315 -0.00643102 0)
(0.0371518 -0.00646767 6.15637e-22)
(0.0373766 -0.00649875 -2.2e-21)
(0.0376043 -0.00652293 2.69762e-21)
(0.037834 -0.00653976 -4.83354e-22)
(0.0380651 -0.00654896 0)
(0.0382971 -0.00655028 -3.85582e-22)
(0.0385303 -0.00654355 0)
(0.0387649 -0.00652859 -5.01262e-22)
(0.0390008 -0.00650525 1.29308e-22)
(0.039238 -0.00647339 4.03065e-22)
(0.039476 -0.00643291 0)
(0.0397144 -0.00638373 -1.20311e-22)
(0.0399527 -0.00632573 2.18575e-22)
(0.0401906 -0.00625882 -8.33517e-24)
(0.0404276 -0.00618293 -2.52636e-22)
(0.0406633 -0.00609798 7.86831e-23)
(0.0408969 -0.00600392 -1.72446e-22)
(0.0411279 -0.00590067 1.63728e-22)
(0.0413559 -0.00578815 2.47033e-22)
(0.0415803 -0.00566625 -8.16223e-22)
(0.0418006 -0.00553492 -6.41041e-22)
(0.0420165 -0.00539408 0)
(0.0422275 -0.0052437 8.45854e-22)
(0.0424333 -0.00508381 4.9203e-22)
(0.0426332 -0.00491439 -1.38078e-21)
(0.042827 -0.00473544 4.90634e-22)
(0.0430141 -0.00454699 -1.16338e-21)
(0.0431941 -0.00434908 1.73479e-21)
(0.0433665 -0.00414179 -6.80682e-22)
(0.0435307 -0.0039252 3.59651e-22)
(0.0436862 -0.00369929 0)
(0.0438324 -0.00346399 -3.55675e-22)
(0.043969 -0.00321933 -3.72928e-22)
(0.0440952 -0.00296559 0)
(0.0442106 -0.00270269 4.51621e-22)
(0.0443146 -0.00242964 -6.61292e-22)
(0.044406 -0.00214949 4.49885e-22)
(0.0444839 -0.00186415 -2.30538e-22)
(0.044548 -0.0015714 -4.18356e-24)
(0.0445975 -0.00127118 -1.81335e-22)
(0.0446318 -0.000963702 5.8038e-23)
(0.0446497 -0.000649046 2.22585e-22)
(0.0446504 -0.000327164 2.37228e-23)
(0.0446329 1.88495e-06 1.39893e-21)
(0.0445963 0.000337923 0)
(0.0445394 0.000680892 8.74305e-22)
(0.0444609 0.00103082 -5.34018e-23)
(0.0443596 0.00138753 -9.0451e-22)
(0.0442339 0.00175075 0)
(0.0440818 0.00212042 -8.7018e-22)
(0.0439012 0.00249669 8.67603e-22)
(0.0436897 0.00287987 1.5921e-21)
(0.0434448 0.00327049 0)
(0.0431639 0.00366917 -3.10216e-21)
(0.0428444 0.00407614 3.13488e-21)
(0.0424833 0.00449163 -3.04147e-21)
(0.0420771 0.0049158 -8.56858e-23)
(0.0416222 0.00534851 0)
(0.0411144 0.00578974 -1.32907e-21)
(0.0405485 0.00624026 1.18161e-21)
(0.0399186 0.00670122 1.4508e-21)
(0.0392176 0.00717351 2.11457e-21)
(0.0384374 0.00765848 -3.53486e-21)
(0.0375717 0.00815543 2.06068e-21)
(0.0366334 0.00866592 -9.96526e-22)
(0.0356306 0.00914998 1.21323e-21)
(0.0345699 0.0097891 2.10363e-21)
(0.0366364 -0.00679234 -2.81018e-21)
(0.0368653 -0.00683566 2.01324e-22)
(0.0370972 -0.00687342 2.57642e-21)
(0.0373338 -0.00690506 0)
(0.0375742 -0.00692916 -5.25456e-22)
(0.0378175 -0.00694533 0)
(0.0380629 -0.00695334 7.60005e-22)
(0.0383099 -0.00695298 -1.02421e-22)
(0.038558 -0.00694408 -9.3092e-22)
(0.038807 -0.0069265 2.27625e-22)
(0.0390567 -0.00690006 2.12882e-22)
(0.0393071 -0.00686459 1.2159e-22)
(0.0395579 -0.00681992 0)
(0.0398089 -0.00676596 0)
(0.0400595 -0.00670258 -1.41905e-23)
(0.0403096 -0.00662972 3.42551e-23)
(0.0405586 -0.00654728 -2.62969e-22)
(0.0408061 -0.0064552 2.62338e-22)
(0.0410516 -0.00635341 4.10146e-22)
(0.0412946 -0.00624186 -5.49251e-22)
(0.0415346 -0.00612048 1.12944e-21)
(0.0417709 -0.00598921 2.87024e-23)
(0.0420032 -0.00584802 -7.99909e-22)
(0.0422307 -0.00569687 -4.70849e-22)
(0.0424532 -0.00553571 -1.00252e-21)
(0.0426701 -0.00536455 1.00381e-21)
(0.0428809 -0.00518341 1.17513e-21)
(0.0430852 -0.00499229 -1.178e-21)
(0.0432824 -0.00479122 0)
(0.043472 -0.00458024 0)
(0.0436535 -0.00435941 1.83583e-21)
(0.0438263 -0.00412877 7.87796e-23)
(0.04399 -0.00388838 -7.96562e-22)
(0.0441439 -0.00363823 -8.69062e-22)
(0.0442875 -0.00337836 8.75481e-22)
(0.0444203 -0.00310904 0)
(0.0445415 -0.00283011 -4.5979e-22)
(0.0446508 -0.00254055 -7.7092e-22)
(0.044747 -0.0022437 5.06442e-22)
(0.0448294 -0.00194117 -1.27969e-23)
(0.0448976 -0.0016308 -4.07868e-23)
(0.0449508 -0.00131254 1.89821e-22)
(0.0449882 -0.000986524 1.38176e-22)
(0.045009 -0.000652803 2.64362e-22)
(0.0450122 -0.000311394 -1.2912e-21)
(0.044997 3.76765e-05 2.33518e-23)
(0.0449622 0.000394346 0)
(0.0449068 0.000758597 -1.09441e-21)
(0.0448295 0.00113047 3.09686e-21)
(0.0447289 0.00150996 -2.10077e-21)
(0.0446035 0.00189704 -1.00556e-21)
(0.0444513 0.00229177 -5.17473e-23)
(0.0442704 0.00269441 -9.11345e-22)
(0.0440585 0.00310532 3.08717e-23)
(0.0438131 0.00352501 1.91297e-21)
(0.0435317 0.00395404 -1.97445e-21)
(0.0432116 0.0043929 -1.79179e-21)
(0.0428499 0.00484197 3.53945e-21)
(0.0424433 0.00530164 -1.38665e-22)
(0.0419883 0.0057722 1.64266e-21)
(0.0414808 0.00625409 -1.65063e-21)
(0.0409152 0.00674833 1.44539e-21)
(0.0402851 0.00725625 -2.7686e-21)
(0.0395828 0.00777909 -1.40866e-21)
(0.0388035 0.0083178 2.58425e-21)
(0.0379464 0.00887001 -1.56768e-21)
(0.0370271 0.00943656 -3.99115e-21)
(0.0360417 0.00998211 -8.44288e-22)
(0.0349604 0.0106829 0)
(0.0365487 -0.00722066 0)
(0.0367936 -0.0072656 -6.69803e-22)
(0.0370403 -0.00730454 -2.16678e-23)
(0.037291 -0.00733685 0)
(0.0375451 -0.00736102 0)
(0.0378022 -0.0073766 -4.27841e-22)
(0.0380617 -0.00738337 1.08392e-21)
(0.0383233 -0.00738115 -1.31193e-21)
(0.0385865 -0.0073698 6.34752e-22)
(0.0388507 -0.0073492 -2.33486e-22)
(0.0391157 -0.00731921 0)
(0.039381 -0.00727965 -1.24632e-22)
(0.0396463 -0.00723035 2.32352e-23)
(0.0399113 -0.00717116 0)
(0.0401757 -0.00710197 0)
(0.0404392 -0.00702269 1.36561e-22)
(0.0407013 -0.00693323 1.05504e-22)
(0.0409616 -0.00683353 -3.82051e-22)
(0.0412196 -0.00672352 -5.26139e-22)
(0.041475 -0.00660315 5.87708e-22)
(0.041727 -0.00647238 3.3778e-22)
(0.0419754 -0.00633118 1.73027e-21)
(0.0422194 -0.00617951 5.28992e-23)
(0.0424586 -0.00601735 -5.99555e-22)
(0.0426924 -0.00584471 1.08139e-21)
(0.0429204 -0.00566158 -6.15295e-22)
(0.043142 -0.005468 1.27043e-21)
(0.0433567 -0.00526398 0)
(0.0435639 -0.00504957 0)
(0.0437631 -0.00482481 0)
(0.0439538 -0.00458977 -3.96907e-22)
(0.0441353 -0.0043445 -8.52377e-22)
(0.0443073 -0.00408907 9.0417e-22)
(0.044469 -0.00382349 9.8211e-22)
(0.0446199 -0.00354783 -9.89029e-22)
(0.0447594 -0.00326235 0)
(0.0448869 -0.00296678 5.50654e-22)
(0.045002 -0.00266017 -2.87315e-22)
(0.0451036 -0.0023462 0)
(0.0451911 -0.00202595 2.90456e-22)
(0.045264 -0.00169743 -5.41899e-23)
(0.0453215 -0.00136058 3.63923e-23)
(0.0453628 -0.0010155 -1.40531e-22)
(0.0453872 -0.000662215 0)
(0.0453936 -0.000300743 -5.91824e-22)
(0.0453813 6.89234e-05 5.86896e-22)
(0.0453491 0.000446803 0)
(0.0452959 0.000832938 -5.45703e-23)
(0.0452205 0.00122742 5.50082e-23)
(0.0451215 0.00163034 1.09568e-21)
(0.0449973 0.00204185 0)
(0.0448461 0.00246216 -1.17057e-22)
(0.044666 0.00289158 -1.05648e-21)
(0.0444549 0.00333056 -3.33795e-21)
(0.0442104 0.00377966 -1.09599e-22)
(0.0439301 0.0042395 2.00599e-21)
(0.0436113 0.00471069 0)
(0.0432513 0.00519384 0)
(0.0428469 0.00568955 2.12582e-21)
(0.0423944 0.00619849 0)
(0.0418896 0.0067216 0)
(0.0413265 0.00726027 -1.71781e-22)
(0.0406984 0.00781607 -1.82632e-21)
(0.0399993 0.00839005 -3.59018e-21)
(0.0392289 0.00898254 3.55155e-21)
(0.0383903 0.00959022 -6.04437e-22)
(0.0374937 0.0102157 1.29693e-21)
(0.0365112 0.0108269 1.53989e-21)
(0.035378 0.0116089 0)
(0.0364495 -0.00767724 0)
(0.0367125 -0.00772349 6.88913e-22)
(0.0369767 -0.00776337 -1.79547e-21)
(0.0372444 -0.00779621 6.24794e-22)
(0.0375146 -0.00782035 0)
(0.0377873 -0.00783528 1.22636e-21)
(0.0380622 -0.00784077 -1.82226e-21)
(0.0383391 -0.00783659 1.19386e-22)
(0.0386176 -0.00782262 1.20949e-21)
(0.0388974 -0.00779876 -2.60269e-22)
(0.039178 -0.00776488 9.22283e-23)
(0.039459 -0.00772082 3.12993e-23)
(0.03974 -0.00766641 3.68561e-23)
(0.0400204 -0.00760153 -2.3711e-22)
(0.0402999 -0.00752604 1.76009e-22)
(0.0405781 -0.00743985 -2.59779e-22)
(0.0408546 -0.00734288 9.20684e-22)
(0.0411288 -0.00723504 -1.94718e-22)
(0.0414005 -0.00711628 4.28888e-22)
(0.0416691 -0.00698656 -3.23476e-22)
(0.0419341 -0.00684584 1.08145e-22)
(0.042195 -0.0066941 -3.01781e-21)
(0.0424514 -0.00653133 -6.22126e-22)
(0.0427025 -0.00635753 -1.02846e-22)
(0.0429481 -0.00617272 1.96659e-21)
(0.0431874 -0.00597692 -6.66997e-22)
(0.0434199 -0.00577017 1.56332e-21)
(0.0436451 -0.00555252 -2.42141e-21)
(0.0438625 -0.00532402 0)
(0.0440715 -0.00508473 -9.24692e-22)
(0.0442715 -0.00483473 9.28163e-22)
(0.044462 -0.00457407 5.10748e-23)
(0.0446424 -0.00430284 -5.48444e-22)
(0.0448121 -0.00402108 -5.71651e-22)
(0.0449706 -0.00372887 1.74343e-21)
(0.0451172 -0.00342648 -1.15761e-21)
(0.0452514 -0.00311351 9.36586e-22)
(0.0453727 -0.00278917 -1.25949e-21)
(0.04548 -0.00245756 6.34321e-22)
(0.0455729 -0.00211902 -1.54562e-22)
(0.0456508 -0.00177178 0)
(0.045713 -0.0014158 1.64808e-22)
(0.0457587 -0.00105113 -1.63176e-22)
(0.045787 -0.000677789 -3.30686e-22)
(0.0457972 -0.000295756 9.88637e-22)
(0.0457883 9.50135e-05 -6.85795e-22)
(0.0457592 0.000494593 -6.54305e-22)
(0.0457088 0.000903096 0)
(0.0456359 0.00132067 -2.66292e-21)
(0.0455392 0.00174752 2.57944e-21)
(0.0454171 0.00218389 -1.21274e-21)
(0.0452679 0.00263011 1.21497e-21)
(0.0450899 0.0030866 1.33107e-21)
(0.0448809 0.00355389 2.42146e-21)
(0.0446389 0.00403262 2.31933e-21)
(0.0443615 0.0045235 0)
(0.0440461 0.00502727 -2.50748e-21)
(0.0436901 0.00554476 0)
(0.0432904 0.00607684 1.05377e-22)
(0.0428429 0.0066246 -2.09513e-21)
(0.0423429 0.00718944 2.22231e-21)
(0.0417844 0.00777313 2.00973e-21)
(0.0411622 0.0083771 -2.25317e-21)
(0.0404735 0.00900202 -1.13291e-22)
(0.0397226 0.0096477 1.83145e-22)
(0.0389105 0.010312 5.70297e-21)
(0.0380314 0.0109998 2.07165e-21)
(0.0370351 0.0116881 1.81e-21)
(0.0358399 0.0125725 -1.79369e-21)
(0.0363402 -0.00816525 0)
(0.0366218 -0.00821249 0)
(0.0369048 -0.00825299 -1.14563e-21)
(0.0371912 -0.00828603 1.68721e-21)
(0.0374798 -0.00830985 4.49149e-22)
(0.0377704 -0.00832389 0)
(0.0380627 -0.00832786 0)
(0.0383565 -0.00832151 -2.42271e-22)
(0.0386517 -0.0083047 3.3475e-22)
(0.0389479 -0.00827732 -1.77606e-22)
(0.0392449 -0.00823923 -3.73837e-22)
(0.0395423 -0.00819029 4.33945e-23)
(0.0398396 -0.00813033 8.92942e-23)
(0.0401363 -0.00805925 -1.76601e-22)
(0.0404318 -0.00797692 2.15419e-22)
(0.0407258 -0.00788324 0)
(0.0410178 -0.00777814 0)
(0.0413073 -0.00766155 5.60952e-23)
(0.0415938 -0.00753341 -1.24455e-21)
(0.0418767 -0.00739368 4.42676e-22)
(0.0421557 -0.00724234 -5.80174e-22)
(0.0424302 -0.00707938 5.54403e-22)
(0.0426997 -0.00690481 6.60343e-22)
(0.0429636 -0.00671864 -6.02877e-22)
(0.0432215 -0.00652092 -7.16603e-22)
(0.0434726 -0.00631169 0)
(0.0437166 -0.006091 0)
(0.0439529 -0.00585892 1.35855e-21)
(0.0441808 -0.00561552 0)
(0.0443999 -0.0053609 1.04594e-21)
(0.0446095 -0.00509513 -1.04955e-21)
(0.0448092 -0.0048183 -5.34791e-22)
(0.0449983 -0.00453051 5.58572e-22)
(0.0451763 -0.0042318 1.22254e-21)
(0.0453425 -0.0039223 -6.05112e-22)
(0.0454964 -0.0036023 -6.66062e-22)
(0.0456374 -0.00327121 7.02829e-22)
(0.0457652 -0.00292851 0)
(0.0458785 -0.00257876 0)
(0.0459771 -0.00222135 1.88402e-22)
(0.0460603 -0.00185481 0)
(0.0461275 -0.00147913 0)
(0.0461778 -0.00109433 -5.58589e-22)
(0.0462105 -0.000700401 7.47183e-22)
(0.0462247 -0.000297295 -3.83545e-22)
(0.0462195 0.000115072 7.00091e-22)
(0.046194 0.000536824 0)
(0.0461469 0.000968134 2.21997e-21)
(0.0460772 0.00140923 -6.3078e-23)
(0.0459835 0.00186038 0)
(0.0458645 0.00232194 -2.86656e-21)
(0.0457185 0.00279433 -7.56337e-23)
(0.0455439 0.00327807 -2.74849e-21)
(0.0453387 0.00377381 -1.46317e-21)
(0.0451009 0.00428225 -2.73328e-21)
(0.0448283 0.00480424 2.72983e-21)
(0.0445185 0.00534069 2.53979e-21)
(0.0441688 0.00589265 0)
(0.0437756 0.00646132 -2.57308e-21)
(0.0433349 0.00704822 1.66954e-22)
(0.0428418 0.00765511 0)
(0.0422912 0.00828385 0)
(0.0416814 0.00893538 2.27367e-21)
(0.0410131 0.00961014 0)
(0.040291 0.0103083 0)
(0.0395051 0.011031 -2.33848e-21)
(0.0386271 0.011784 -1.92199e-21)
(0.0375984 0.012565 -2.4226e-21)
(0.0363116 0.0134955 0)
(0.0362243 -0.0086877 0)
(0.0365243 -0.00873571 0)
(0.0368261 -0.00877653 0)
(0.0371319 -0.00880943 4.98103e-22)
(0.0374402 -0.00883255 3.54653e-22)
(0.0377502 -0.0088453 -1.40225e-22)
(0.0380618 -0.00884735 -6.64224e-22)
(0.0383744 -0.00883845 2.48372e-22)
(0.038688 -0.00881841 -1.27297e-22)
(0.0390024 -0.00878712 -1.66353e-22)
(0.0393171 -0.00874442 0)
(0.039632 -0.00869015 0)
(0.0399466 -0.00862417 -6.40336e-23)
(0.0402603 -0.00854635 5.31401e-22)
(0.0405728 -0.00845659 -1.08638e-21)
(0.0408835 -0.0083548 -1.32614e-22)
(0.0411919 -0.0082409 7.02019e-22)
(0.0414975 -0.00811485 4.09897e-22)
(0.0417997 -0.00797659 -8.33915e-23)
(0.0420981 -0.00782611 0)
(0.0423921 -0.00766339 1.27442e-21)
(0.0426811 -0.00748844 0)
(0.0429646 -0.00730128 1.51606e-21)
(0.0432421 -0.00710195 -2.45608e-21)
(0.0435131 -0.00689051 2.61372e-21)
(0.0437768 -0.00666702 9.85351e-22)
(0.0440329 -0.00643156 -1.53658e-21)
(0.0442807 -0.00618422 1.59045e-21)
(0.0445198 -0.00592511 -1.07208e-21)
(0.0447494 -0.00565432 0)
(0.0449691 -0.00537196 -1.23106e-21)
(0.0451783 -0.00507815 -7.09298e-22)
(0.0453764 -0.00477299 1.28892e-21)
(0.0455628 -0.00445655 -1.36698e-21)
(0.0457371 -0.00412901 7.17515e-22)
(0.0458986 -0.00379063 -7.22396e-22)
(0.0460467 -0.00344068 -3.62354e-22)
(0.0461811 -0.00307895 4.09048e-22)
(0.0463006 -0.00271049 1.92353e-22)
(0.0464051 -0.00233356 -5.85853e-22)
(0.0464939 -0.00194711 -5.24791e-23)
(0.0465662 -0.00155115 0)
(0.0466214 -0.00114568 1.93844e-22)
(0.0466587 -0.00073066 -3.88512e-22)
(0.0466773 -0.000306014 3.88803e-22)
(0.0466763 0.00012838 0)
(0.0466548 0.000572692 0)
(0.0466117 0.00102715 8.44893e-22)
(0.0465459 0.00149205 -1.60754e-21)
(0.0464563 0.00196775 -3.27937e-21)
(0.0463414 0.00245467 6.37305e-21)
(0.0461999 0.00295335 -1.65026e-21)
(0.0460301 0.0034644 1.57118e-21)
(0.0458303 0.00398856 1.48164e-21)
(0.0455985 0.00452667 -3.06159e-21)
(0.0453327 0.00507971 3.05655e-21)
(0.0450303 0.00564878 0)
(0.0446884 0.00623524 -3.13096e-21)
(0.0443034 0.0068406 1.86421e-22)
(0.0438712 0.00746673 2.91263e-21)
(0.0433881 0.00811541 0)
(0.0428515 0.00878828 0)
(0.0422632 0.00948578 0)
(0.0416245 0.0102088 5.61594e-21)
(0.0409327 0.0109596 2.82823e-21)
(0.0401569 0.0117422 2.44033e-21)
(0.039255 0.0125678 -5.10452e-21)
(0.0381651 0.0134336 -4.04951e-22)
(0.0368175 0.0144415 2.76319e-21)
(0.0361039 -0.0092476 0)
(0.0364226 -0.00929624 1.23008e-21)
(0.0367436 -0.00933716 -1.49508e-21)
(0.037069 -0.00936962 6.33194e-22)
(0.0373973 -0.00939169 -1.29071e-21)
(0.0377277 -0.00940272 -3.08595e-22)
(0.0380596 -0.00940241 -2.2883e-22)
(0.0383926 -0.00939046 0)
(0.0387262 -0.00936669 2.02673e-22)
(0.0390604 -0.00933096 4.32054e-23)
(0.0393946 -0.00928312 1.83092e-23)
(0.0397285 -0.00922298 -1.56162e-22)
(0.0400617 -0.0091504 2.99376e-22)
(0.0403938 -0.00906524 -8.34094e-23)
(0.0407243 -0.0089674 -1.41885e-21)
(0.0410526 -0.00885681 -1.42694e-22)
(0.0413784 -0.0087334 -1.41201e-22)
(0.041701 -0.00859713 1.01526e-21)
(0.0420198 -0.00844797 5.66755e-22)
(0.0423344 -0.00828591 1.42108e-21)
(0.0426442 -0.00811096 -1.3192e-21)
(0.0429486 -0.00792315 0)
(0.043247 -0.00772251 1.04716e-22)
(0.0435389 -0.00750912 0)
(0.0438237 -0.00728305 -9.44321e-22)
(0.0441007 -0.00704439 -1.00427e-21)
(0.0443696 -0.00679325 5.31684e-22)
(0.0446296 -0.00652974 0)
(0.0448802 -0.00625398 6.51183e-22)
(0.0451209 -0.00596612 1.3224e-21)
(0.0453511 -0.00566627 -1.32611e-21)
(0.0455702 -0.00535459 6.73265e-22)
(0.0457776 -0.0050312 -1.48917e-21)
(0.0459729 -0.00469618 2.99509e-21)
(0.0461555 -0.00434978 -7.75894e-22)
(0.0463248 -0.00399222 0)
(0.0464802 -0.00362259 -4.39813e-22)
(0.0466215 -0.00324129 3.80284e-23)
(0.0467474 -0.00285344 6.50792e-22)
(0.0468581 -0.00245634 -5.47536e-22)
(0.0469526 -0.0020494 1.051e-22)
(0.0470304 -0.00163261 -3.40642e-22)
(0.0470908 -0.00120596 2.22054e-22)
(0.0471331 -0.000769398 0)
(0.0471565 -0.00032281 0)
(0.0471602 0.00013396 0)
(0.0471433 0.000601131 9.3699e-22)
(0.047105 0.00107899 9.35134e-22)
(0.047044 0.00156788 0)
(0.0469595 0.00206824 1.78152e-21)
(0.04685 0.00258059 1.92458e-21)
(0.0467142 0.00310555 1.83812e-21)
(0.0465507 0.00364384 0)
(0.0463578 0.00419631 0)
(0.0461335 0.00476391 -3.41253e-21)
(0.0458758 0.00534782 3.4055e-21)
(0.0455821 0.00594939 0)
(0.0452493 0.00657025 3.16065e-21)
(0.0448741 0.0072121 -3.12117e-21)
(0.0444534 0.00787693 -3.42294e-21)
(0.0439857 0.0085662 3.18307e-21)
(0.0434717 0.00928121 -3.19054e-21)
(0.0429134 0.0100225 0)
(0.0423057 0.0107927 -2.91994e-21)
(0.0416299 0.0115975 1.63365e-22)
(0.0408346 0.0124436 -6.30295e-21)
(0.0398835 0.0133486 -6.22705e-21)
(0.0387205 0.0142814 5.84676e-21)
(0.0373758 0.0153565 -2.80264e-21)
(0.0359799 -0.00984818 3.48092e-22)
(0.0363184 -0.00989733 0)
(0.0366593 -0.00993816 2.83391e-22)
(0.037005 -0.00996996 -1.08234e-21)
(0.0373539 -0.00999065 1.72808e-21)
(0.0377051 -0.0099996 -3.48033e-22)
(0.0380581 -0.00999646 2.34437e-22)
(0.0384122 -0.00998096 -1.68991e-22)
(0.0387671 -0.0099529 9.37551e-23)
(0.0391224 -0.00991214 -4.80916e-24)
(0.0394775 -0.00985851 -1.55482e-22)
(0.039832 -0.00979184 6.30263e-22)
(0.0401855 -0.00971197 -1.51812e-22)
(0.0405374 -0.00961876 1.17329e-21)
(0.0408873 -0.00951211 5.40112e-22)
(0.0412347 -0.00939195 1.53504e-22)
(0.041579 -0.00925822 -1.07396e-21)
(0.0419196 -0.00911089 0)
(0.0422561 -0.00894994 0)
(0.0425879 -0.00877539 -8.46861e-22)
(0.0429144 -0.00858727 -8.10375e-22)
(0.0432349 -0.00838563 -1.9317e-21)
(0.043549 -0.00817053 9.83497e-22)
(0.0438559 -0.00794207 2.20022e-21)
(0.0441552 -0.00770034 -2.1983e-21)
(0.0444462 -0.00744548 6.32116e-22)
(0.0447284 -0.00717762 6.65238e-22)
(0.0450012 -0.0068969 0)
(0.0452639 -0.00660348 -6.62626e-22)
(0.0455161 -0.00629753 -1.47972e-21)
(0.0457572 -0.0059792 -5.63999e-23)
(0.0459866 -0.00564868 1.54452e-21)
(0.0462038 -0.00530611 -8.54763e-22)
(0.0464082 -0.0049516 0)
(0.0465993 -0.00458548 4.57398e-22)
(0.0467766 -0.00420786 -4.72151e-22)
(0.0469396 -0.00381774 4.46151e-22)
(0.047088 -0.00341648 -9.57387e-22)
(0.0472207 -0.00300839 0)
(0.0473377 -0.0025905 -1.268e-22)
(0.0474383 -0.00216248 1.22355e-22)
(0.0475219 -0.00172435 -1.93373e-22)
(0.0475879 -0.00127606 7.40047e-22)
(0.0476356 -0.000817554 -1.48324e-21)
(0.0476643 -0.000348683 9.83675e-22)
(0.0476733 0.000130745 9.92325e-22)
(0.0476618 0.000620993 -8.99845e-22)
(0.0476289 0.0011224 2.06145e-21)
(0.0475737 0.00163538 -1.96298e-21)
(0.0474951 0.00216044 -4.86329e-21)
(0.047392 0.00269818 8.11964e-23)
(0.0472631 0.00324932 -1.85738e-21)
(0.0471069 0.00381465 0)
(0.0469219 0.00439516 0)
(0.0467062 0.00499199 -3.78682e-21)
(0.0464576 0.00560651 5.55397e-21)
(0.0461735 0.00624028 -3.74534e-21)
(0.0458513 0.00689508 0)
(0.0454888 0.0075726 3.84697e-21)
(0.045085 0.0082746 7.04441e-21)
(0.0446406 0.00900213 -3.38843e-21)
(0.0441564 0.00975664 4.14427e-23)
(0.0436283 0.01054 3.52557e-21)
(0.043037 0.0113581 -2.14241e-22)
(0.042346 0.0122203 -6.89189e-21)
(0.0415006 0.0131341 6.66318e-21)
(0.0404968 0.0141123 3.20158e-21)
(0.0392976 0.0151037 0)
(0.0381234 0.0163029 0)
(0.035852 -0.010493 -3.57095e-22)
(0.0362118 -0.0105425 -1.42119e-21)
(0.036574 -0.0105831 1.11803e-21)
(0.0369412 -0.010614 0)
(0.0373117 -0.010633 1.78906e-22)
(0.0376847 -0.0106395 3.9261e-22)
(0.0380596 -0.0106331 -3.31441e-22)
(0.0384358 -0.0106135 4.93312e-23)
(0.0388128 -0.0105806 -3.64919e-23)
(0.0391901 -0.0105342 0)
(0.0395673 -0.0104741 3.87567e-23)
(0.0399437 -0.0104001 0)
(0.0403188 -0.0103122 4.91478e-22)
(0.040692 -0.0102101 -1.2128e-21)
(0.0410628 -0.0100938 0)
(0.0414306 -0.00996319 0)
(0.0417948 -0.00981822 0)
(0.0421549 -0.00965888 -1.19944e-21)
(0.0425103 -0.00948517 1.60461e-21)
(0.0428605 -0.00929712 8.63526e-22)
(0.0432047 -0.00909479 0)
(0.0435424 -0.00887825 0)
(0.043873 -0.00864759 0)
(0.0441958 -0.00840294 -3.1351e-21)
(0.0445104 -0.00814445 3.80943e-21)
(0.044816 -0.00787225 -1.95989e-21)
(0.0451122 -0.00758653 -1.42427e-21)
(0.0453982 -0.00728748 1.52077e-21)
(0.0456736 -0.00697528 -1.52219e-21)