/*--------------------------------*- C++ -*----------------------------------*\
| =========                 |                                                 |
| \\      /  F ield         | OpenFOAM: The Open Source CFD Toolbox           |
|  \\    /   O peration     | Version:  2312                                  |
|   \\  /    A nd           | Website:  www.openfoam.com                      |
|    \\/     M anipulation  |                                                 |
\*---------------------------------------------------------------------------*/
FoamFile
{
    version     2.0;
    format      ascii;
    arch        "LSB;label=32;scalar=64";
    class       volScalarField;
    location    "400";
    object      k;
}
// * * * * * * * * * * * * * * * * * * * * * * * * * * * * * * * * * * * * * //

dimensions      [0 2 -2 0 0 0 0];

internalField   nonuniform List<scalar> 
76025
(
4.71597e-06
4.71382e-06
4.71218e-06
4.7129e-06
4.71495e-06
4.71776e-06
4.71738e-06
4.71682e-06
4.71579e-06
4.7151e-06
4.715e-06
4.71577e-06
4.7142e-06
4.7137e-06
4.71584e-06
4.71782e-06
4.7227e-06
4.72716e-06
4.73302e-06
4.73887e-06
4.74565e-06
4.75268e-06
4.76036e-06
4.76781e-06
4.77799e-06
4.78466e-06
4.7967e-06
4.80499e-06
4.8166e-06
4.82605e-06
4.84017e-06
4.84927e-06
4.86497e-06
4.87665e-06
4.8912e-06
4.90536e-06
4.91959e-06
4.93843e-06
4.95558e-06
4.97315e-06
4.99099e-06
5.00865e-06
5.02896e-06
5.04679e-06
5.06444e-06
5.08126e-06
5.09858e-06
5.115e-06
5.13208e-06
5.14821e-06
5.16731e-06
5.18614e-06
5.20991e-06
5.23379e-06
5.26727e-06
5.3016e-06
5.34443e-06
5.3932e-06
5.44915e-06
5.51702e-06
5.58566e-06
5.66571e-06
5.77783e-06
5.87827e-06
6.01935e-06
6.19177e-06
6.3164e-06
6.56936e-06
6.72083e-06
4.75065e-06
4.74967e-06
4.74986e-06
4.75013e-06
4.75101e-06
4.7533e-06
4.75522e-06
4.75747e-06
4.75932e-06
4.76054e-06
4.76187e-06
4.76307e-06
4.76454e-06
4.76556e-06
4.76762e-06
4.76937e-06
4.7727e-06
4.77655e-06
4.78174e-06
4.78738e-06
4.79417e-06
4.80116e-06
4.80924e-06
4.81708e-06
4.82664e-06
4.83536e-06
4.84582e-06
4.85579e-06
4.86705e-06
4.878e-06
4.89032e-06
4.90204e-06
4.91501e-06
4.92791e-06
4.94139e-06
4.95532e-06
4.96945e-06
4.98406e-06
4.99872e-06
5.01341e-06
5.02834e-06
5.04339e-06
5.05823e-06
5.07308e-06
5.08809e-06
5.10356e-06
5.11919e-06
5.13571e-06
5.15353e-06
5.17353e-06
5.19537e-06
5.22062e-06
5.24886e-06
5.28137e-06
5.31871e-06
5.36072e-06
5.41059e-06
5.46362e-06
5.52953e-06
5.59746e-06
5.68175e-06
5.77222e-06
5.89017e-06
5.99204e-06
6.16204e-06
6.28742e-06
6.49298e-06
6.67486e-06
6.96754e-06
4.78914e-06
4.79041e-06
4.79131e-06
4.79206e-06
4.79272e-06
4.79404e-06
4.79576e-06
4.79812e-06
4.80101e-06
4.80393e-06
4.80703e-06
4.80991e-06
4.81307e-06
4.81607e-06
4.81946e-06
4.82274e-06
4.82649e-06
4.83054e-06
4.83531e-06
4.84053e-06
4.84656e-06
4.85297e-06
4.8602e-06
4.86771e-06
4.87609e-06
4.88471e-06
4.894e-06
4.90361e-06
4.91387e-06
4.92442e-06
4.93555e-06
4.94693e-06
4.95871e-06
4.97083e-06
4.98331e-06
4.99617e-06
5.0093e-06
5.02272e-06
5.03641e-06
5.05025e-06
5.06436e-06
5.07881e-06
5.09359e-06
5.10895e-06
5.12506e-06
5.14206e-06
5.16017e-06
5.17975e-06
5.20133e-06
5.2251e-06
5.25158e-06
5.28106e-06
5.31417e-06
5.35117e-06
5.39293e-06
5.43967e-06
5.49289e-06
5.55162e-06
5.62075e-06
5.69512e-06
5.7858e-06
5.88045e-06
6.00186e-06
6.11357e-06
6.28385e-06
6.41834e-06
6.64193e-06
6.81604e-06
7.12505e-06
4.82601e-06
4.82948e-06
4.83255e-06
4.83528e-06
4.83753e-06
4.8396e-06
4.84167e-06
4.84393e-06
4.84667e-06
4.84976e-06
4.85332e-06
4.85707e-06
4.86112e-06
4.86532e-06
4.86978e-06
4.87435e-06
4.87913e-06
4.88406e-06
4.88929e-06
4.89478e-06
4.90069e-06
4.90694e-06
4.91366e-06
4.92077e-06
4.92838e-06
4.93641e-06
4.94491e-06
4.95383e-06
4.96324e-06
4.97306e-06
4.98331e-06
4.99394e-06
5.00497e-06
5.01639e-06
5.02822e-06
5.04045e-06
5.05305e-06
5.06613e-06
5.07965e-06
5.09356e-06
5.10797e-06
5.12304e-06
5.13884e-06
5.15557e-06
5.1734e-06
5.19249e-06
5.21309e-06
5.2355e-06
5.26004e-06
5.28706e-06
5.31686e-06
5.34983e-06
5.38645e-06
5.42693e-06
5.47254e-06
5.52258e-06
5.58066e-06
5.64283e-06
5.71868e-06
5.79626e-06
5.89646e-06
5.99213e-06
6.1273e-06
6.23631e-06
6.42939e-06
6.5516e-06
6.80925e-06
6.95997e-06
7.31581e-06
4.86553e-06
4.8695e-06
4.87374e-06
4.87811e-06
4.88232e-06
4.88625e-06
4.88992e-06
4.89336e-06
4.89678e-06
4.90027e-06
4.904e-06
4.90798e-06
4.91227e-06
4.91682e-06
4.92166e-06
4.92675e-06
4.93207e-06
4.93759e-06
4.94333e-06
4.94926e-06
4.95545e-06
4.96187e-06
4.9686e-06
4.97562e-06
4.98299e-06
4.99071e-06
4.99882e-06
5.00732e-06
5.01622e-06
5.02555e-06
5.0353e-06
5.04548e-06
5.05612e-06
5.06721e-06
5.07879e-06
5.09088e-06
5.10345e-06
5.11665e-06
5.1305e-06
5.14495e-06
5.16013e-06
5.17621e-06
5.19328e-06
5.21155e-06
5.23119e-06
5.25232e-06
5.27522e-06
5.30009e-06
5.3273e-06
5.35706e-06
5.38978e-06
5.42573e-06
5.46549e-06
5.50932e-06
5.55853e-06
5.61258e-06
5.67525e-06
5.74215e-06
5.82441e-06
5.90617e-06
6.01578e-06
6.11352e-06
6.26035e-06
6.37216e-06
6.57547e-06
6.70499e-06
6.96522e-06
7.12597e-06
7.51926e-06
4.91021e-06
4.91369e-06
4.91777e-06
4.92244e-06
4.92749e-06
4.93269e-06
4.93789e-06
4.94295e-06
4.94785e-06
4.9526e-06
4.95729e-06
4.96197e-06
4.96674e-06
4.97165e-06
4.97674e-06
4.98204e-06
4.98755e-06
4.99328e-06
4.99924e-06
5.0054e-06
5.01179e-06
5.01841e-06
5.02527e-06
5.0324e-06
5.03981e-06
5.04753e-06
5.05558e-06
5.06399e-06
5.07278e-06
5.08199e-06
5.09163e-06
5.10174e-06
5.11236e-06
5.1235e-06
5.13521e-06
5.14752e-06
5.16043e-06
5.17414e-06
5.18864e-06
5.20393e-06
5.22014e-06
5.23745e-06
5.25595e-06
5.27586e-06
5.29731e-06
5.32042e-06
5.34549e-06
5.37262e-06
5.40229e-06
5.43453e-06
5.47002e-06
5.50877e-06
5.55182e-06
5.59904e-06
5.65247e-06
5.71076e-06
5.77885e-06
5.85089e-06
5.93966e-06
6.0266e-06
6.14446e-06
6.24532e-06
6.40391e-06
6.51699e-06
6.73602e-06
6.86616e-06
7.13875e-06
7.30685e-06
7.73887e-06
4.9607e-06
4.96388e-06
4.96747e-06
4.97168e-06
4.97647e-06
4.98174e-06
4.9874e-06
4.99328e-06
4.99925e-06
5.00523e-06
5.01114e-06
5.01697e-06
5.02274e-06
5.02849e-06
5.03425e-06
5.04007e-06
5.04598e-06
5.05203e-06
5.05823e-06
5.06461e-06
5.07119e-06
5.07799e-06
5.08502e-06
5.09231e-06
5.09988e-06
5.10775e-06
5.11595e-06
5.1245e-06
5.13344e-06
5.14281e-06
5.15265e-06
5.16299e-06
5.17389e-06
5.1854e-06
5.19755e-06
5.21037e-06
5.22393e-06
5.2384e-06
5.2538e-06
5.27014e-06
5.28756e-06
5.30623e-06
5.32624e-06
5.34783e-06
5.37107e-06
5.39609e-06
5.42324e-06
5.45254e-06
5.48462e-06
5.51933e-06
5.5577e-06
5.59946e-06
5.64617e-06
5.69723e-06
5.75541e-06
5.81839e-06
5.89234e-06
5.96972e-06
6.06468e-06
6.15811e-06
6.28087e-06
6.39133e-06
6.55208e-06
6.68112e-06
6.90136e-06
7.04069e-06
7.32467e-06
7.50227e-06
8.00268e-06
5.01644e-06
5.01986e-06
5.02342e-06
5.02734e-06
5.03169e-06
5.0365e-06
5.04179e-06
5.04752e-06
5.05361e-06
5.05996e-06
5.06649e-06
5.0731e-06
5.07975e-06
5.0864e-06
5.09303e-06
5.09966e-06
5.1063e-06
5.11298e-06
5.11974e-06
5.12661e-06
5.13361e-06
5.14079e-06
5.14818e-06
5.1558e-06
5.16369e-06
5.17189e-06
5.18041e-06
5.18931e-06
5.19862e-06
5.20838e-06
5.21864e-06
5.22946e-06
5.2409e-06
5.25302e-06
5.26585e-06
5.27943e-06
5.29384e-06
5.30929e-06
5.32576e-06
5.3433e-06
5.36203e-06
5.38215e-06
5.40373e-06
5.42702e-06
5.45205e-06
5.47905e-06
5.5083e-06
5.53988e-06
5.57453e-06
5.61198e-06
5.65363e-06
5.69884e-06
5.74975e-06
5.80515e-06
5.86853e-06
5.93643e-06
6.01668e-06
6.09884e-06
6.20117e-06
6.29946e-06
6.42938e-06
6.54868e-06
6.71185e-06
6.86255e-06
7.07221e-06
7.23604e-06
7.52224e-06
7.71729e-06
8.29071e-06
5.07762e-06
5.08154e-06
5.08546e-06
5.08956e-06
5.09386e-06
5.09842e-06
5.10333e-06
5.10861e-06
5.11429e-06
5.12035e-06
5.12674e-06
5.13341e-06
5.1403e-06
5.14735e-06
5.15451e-06
5.16176e-06
5.16907e-06
5.17644e-06
5.18388e-06
5.1914e-06
5.19905e-06
5.20683e-06
5.2148e-06
5.22299e-06
5.23143e-06
5.24016e-06
5.24924e-06
5.2587e-06
5.26859e-06
5.27897e-06
5.28989e-06
5.30141e-06
5.31361e-06
5.32654e-06
5.34026e-06
5.35479e-06
5.37026e-06
5.38684e-06
5.40453e-06
5.42339e-06
5.44356e-06
5.46525e-06
5.48849e-06
5.51362e-06
5.54057e-06
5.56975e-06
5.60131e-06
5.63554e-06
5.67309e-06
5.71379e-06
5.75918e-06
5.80835e-06
5.86389e-06
5.92402e-06
5.99272e-06
6.06588e-06
6.1522e-06
6.23932e-06
6.34952e-06
6.45159e-06
6.59241e-06
6.71669e-06
6.88863e-06
7.05903e-06
7.24777e-06
7.46399e-06
7.72409e-06
7.96579e-06
8.62035e-06
5.14468e-06
5.14906e-06
5.15343e-06
5.15792e-06
5.16251e-06
5.16722e-06
5.1721e-06
5.17721e-06
5.18258e-06
5.18827e-06
5.19429e-06
5.20063e-06
5.20728e-06
5.21421e-06
5.22139e-06
5.22879e-06
5.23637e-06
5.24412e-06
5.25203e-06
5.2601e-06
5.26834e-06
5.27676e-06
5.28539e-06
5.29426e-06
5.3034e-06
5.31286e-06
5.32268e-06
5.33291e-06
5.34361e-06
5.35483e-06
5.36664e-06
5.37909e-06
5.39229e-06
5.40626e-06
5.4211e-06
5.43679e-06
5.45353e-06
5.47145e-06
5.49055e-06
5.51093e-06
5.53274e-06
5.55619e-06
5.58132e-06
5.60855e-06
5.63768e-06
5.66942e-06
5.70362e-06
5.74098e-06
5.7818e-06
5.82627e-06
5.87573e-06
5.92928e-06
5.98965e-06
6.05476e-06
6.12863e-06
6.20769e-06
6.29915e-06
6.39316e-06
6.50963e-06
6.6181e-06
6.77113e-06
6.89607e-06
7.09207e-06
7.25369e-06
7.4577e-06
7.70362e-06
7.9361e-06
8.36573e-06
8.96786e-06
5.21885e-06
5.22359e-06
5.22834e-06
5.23322e-06
5.2382e-06
5.24324e-06
5.24839e-06
5.25365e-06
5.25908e-06
5.26471e-06
5.27058e-06
5.27671e-06
5.28312e-06
5.28982e-06
5.29681e-06
5.30409e-06
5.31165e-06
5.31948e-06
5.32758e-06
5.33593e-06
5.34455e-06
5.35343e-06
5.36262e-06
5.37211e-06
5.38194e-06
5.39215e-06
5.40279e-06
5.41389e-06
5.42552e-06
5.43772e-06
5.45057e-06
5.46412e-06
5.47848e-06
5.49367e-06
5.50981e-06
5.52684e-06
5.54507e-06
5.5645e-06
5.58525e-06
5.60734e-06
5.63104e-06
5.6565e-06
5.68382e-06
5.71342e-06
5.74509e-06
5.77972e-06
5.81692e-06
5.8578e-06
5.90221e-06
5.95079e-06
6.00452e-06
6.06266e-06
6.128e-06
6.19819e-06
6.27742e-06
6.36291e-06
6.45897e-06
6.56291e-06
6.68202e-06
6.80559e-06
6.96173e-06
7.09814e-06
7.31496e-06
7.44757e-06
7.72818e-06
7.90604e-06
8.31851e-06
8.70857e-06
9.31229e-06
5.30023e-06
5.30542e-06
5.31059e-06
5.31588e-06
5.32127e-06
5.32673e-06
5.33228e-06
5.33791e-06
5.34366e-06
5.34955e-06
5.3556e-06
5.36185e-06
5.36833e-06
5.37504e-06
5.38203e-06
5.38931e-06
5.39689e-06
5.40478e-06
5.41299e-06
5.42154e-06
5.43043e-06
5.43968e-06
5.44932e-06
5.45935e-06
5.46981e-06
5.48073e-06
5.49217e-06
5.50414e-06
5.51673e-06
5.52996e-06
5.54393e-06
5.55866e-06
5.57429e-06
5.5908e-06
5.60836e-06
5.62687e-06
5.64676e-06
5.66785e-06
5.69045e-06
5.71443e-06
5.74029e-06
5.76795e-06
5.79776e-06
5.82996e-06
5.86448e-06
5.90227e-06
5.94274e-06
5.9874e-06
6.03559e-06
6.08854e-06
6.14667e-06
6.20964e-06
6.28024e-06
6.35562e-06
6.4412e-06
6.53288e-06
6.63545e-06
6.74971e-06
6.87182e-06
7.01675e-06
7.16302e-06
7.33857e-06
7.52643e-06
7.70237e-06
7.97991e-06
8.20397e-06
8.74535e-06
9.04566e-06
9.88013e-06
5.39035e-06
5.39604e-06
5.40168e-06
5.40744e-06
5.41329e-06
5.4192e-06
5.4252e-06
5.43128e-06
5.43747e-06
5.44379e-06
5.45026e-06
5.45689e-06
5.46371e-06
5.47075e-06
5.47803e-06
5.48557e-06
5.49341e-06
5.50157e-06
5.51007e-06
5.51892e-06
5.52818e-06
5.53784e-06
5.54795e-06
5.55853e-06
5.56961e-06
5.58124e-06
5.59346e-06
5.60631e-06
5.61985e-06
5.63412e-06
5.64921e-06
5.66515e-06
5.68209e-06
5.69997e-06
5.71902e-06
5.73909e-06
5.76074e-06
5.78356e-06
5.80819e-06
5.83416e-06
5.8624e-06
5.89237e-06
5.92491e-06
5.95984e-06
5.99748e-06
6.0386e-06
6.08259e-06
6.13127e-06
6.18343e-06
6.24113e-06
6.30386e-06
6.37228e-06
6.44847e-06
6.52985e-06
6.62279e-06
6.72063e-06
6.83323e-06
6.95487e-06
7.08822e-06
7.24463e-06
7.3933e-06
7.5963e-06
7.75623e-06
7.99986e-06
8.26032e-06
8.62003e-06
9.08843e-06
9.35264e-06
1.0321e-05
5.48945e-06
5.49566e-06
5.50184e-06
5.50814e-06
5.51453e-06
5.52099e-06
5.52752e-06
5.53415e-06
5.5409e-06
5.54777e-06
5.55479e-06
5.56199e-06
5.56937e-06
5.57697e-06
5.5848e-06
5.5929e-06
5.60129e-06
5.61e-06
5.61906e-06
5.62849e-06
5.63834e-06
5.64863e-06
5.65939e-06
5.67067e-06
5.68251e-06
5.69495e-06
5.70803e-06
5.72182e-06
5.73637e-06
5.75173e-06
5.768e-06
5.7852e-06
5.80349e-06
5.82281e-06
5.84343e-06
5.86514e-06
5.88866e-06
5.91333e-06
5.94015e-06
5.96822e-06
5.99908e-06
6.03146e-06
6.06707e-06
6.10483e-06
6.14602e-06
6.19059e-06
6.23857e-06
6.29157e-06
6.34814e-06
6.41119e-06
6.47893e-06
6.55381e-06
6.63587e-06
6.7249e-06
6.8252e-06
6.93154e-06
7.05482e-06
7.1848e-06
7.33211e-06
7.49252e-06
7.6581e-06
7.86321e-06
8.0339e-06
8.34708e-06
8.60537e-06
9.04291e-06
9.27431e-06
9.68131e-06
1.03318e-05
5.60101e-06
5.60764e-06
5.61427e-06
5.62106e-06
5.62797e-06
5.63497e-06
5.64207e-06
5.64928e-06
5.65662e-06
5.66411e-06
5.67176e-06
5.67959e-06
5.68762e-06
5.69589e-06
5.70441e-06
5.71321e-06
5.72231e-06
5.73176e-06
5.74157e-06
5.75177e-06
5.76241e-06
5.77352e-06
5.78514e-06
5.79731e-06
5.81007e-06
5.82348e-06
5.83759e-06
5.85247e-06
5.86815e-06
5.88475e-06
5.9023e-06
5.9209e-06
5.94066e-06
5.96156e-06
5.98385e-06
6.00742e-06
6.03292e-06
6.05963e-06
6.0888e-06
6.11924e-06
6.15294e-06
6.18798e-06
6.22702e-06
6.26782e-06
6.31314e-06
6.36129e-06
6.41411e-06
6.47155e-06
6.53353e-06
6.6023e-06
6.67598e-06
6.75807e-06
6.84689e-06
6.94491e-06
7.05316e-06
7.17076e-06
7.30403e-06
7.44512e-06
7.60208e-06
7.7702e-06
7.95367e-06
8.15557e-06
8.41543e-06
8.71257e-06
8.9933e-06
9.26325e-06
9.51086e-06
1.00308e-05
1.18126e-05
5.72528e-06
5.73234e-06
5.73942e-06
5.74672e-06
5.7542e-06
5.7618e-06
5.76955e-06
5.77745e-06
5.78552e-06
5.79376e-06
5.80219e-06
5.81083e-06
5.81971e-06
5.82884e-06
5.83825e-06
5.84796e-06
5.85801e-06
5.86842e-06
5.87922e-06
5.89045e-06
5.90213e-06
5.91432e-06
5.92703e-06
5.94035e-06
5.95427e-06
5.96892e-06
5.98427e-06
6.00048e-06
6.01752e-06
6.03558e-06
6.05461e-06
6.07486e-06
6.09624e-06
6.119e-06
6.14311e-06
6.16887e-06
6.19645e-06
6.22566e-06
6.25724e-06
6.29061e-06
6.32719e-06
6.36559e-06
6.40815e-06
6.45271e-06
6.50248e-06
6.55482e-06
6.61319e-06
6.67541e-06
6.74398e-06
6.81867e-06
6.8997e-06
6.98953e-06
7.08661e-06
7.19483e-06
7.31248e-06
7.44333e-06
7.58503e-06
7.73842e-06
7.90182e-06
8.08836e-06
8.2895e-06
8.56984e-06
8.78139e-06
8.96233e-06
9.1487e-06
9.33058e-06
9.76768e-06
1.09951e-05
1.50439e-05
5.86841e-06
5.87585e-06
5.88333e-06
5.89108e-06
5.89904e-06
5.90719e-06
5.91553e-06
5.92407e-06
5.93282e-06
5.9418e-06
5.95102e-06
5.96049e-06
5.97024e-06
5.98028e-06
5.99064e-06
6.00135e-06
6.01242e-06
6.02391e-06
6.03582e-06
6.04821e-06
6.06109e-06
6.07453e-06
6.08853e-06
6.1032e-06
6.11851e-06
6.13461e-06
6.15145e-06
6.16925e-06
6.18789e-06
6.20771e-06
6.22846e-06
6.25068e-06
6.27394e-06
6.29892e-06
6.32511e-06
6.35352e-06
6.38332e-06
6.41568e-06
6.44972e-06
6.48691e-06
6.52621e-06
6.56913e-06
6.61485e-06
6.66464e-06
6.71835e-06
6.77648e-06
6.84005e-06
6.90855e-06
6.98392e-06
7.06582e-06
7.1551e-06
7.25427e-06
7.361e-06
7.48141e-06
7.60875e-06
7.75517e-06
7.89769e-06
8.07656e-06
8.23463e-06
8.49937e-06
8.68091e-06
8.84998e-06
8.88289e-06
8.96331e-06
9.09989e-06
9.36552e-06
1.05354e-05
1.36941e-05
1.57674e-05
6.03061e-06
6.03863e-06
6.04672e-06
6.05512e-06
6.06377e-06
6.07266e-06
6.0818e-06
6.09118e-06
6.10083e-06
6.11077e-06
6.12099e-06
6.13153e-06
6.14239e-06
6.15359e-06
6.16516e-06
6.17712e-06
6.18949e-06
6.2023e-06
6.21559e-06
6.2294e-06
6.24374e-06
6.25869e-06
6.27425e-06
6.29053e-06
6.30751e-06
6.32534e-06
6.34396e-06
6.36363e-06
6.38419e-06
6.40604e-06
6.42886e-06
6.45332e-06
6.47879e-06
6.5063e-06
6.53493e-06
6.5663e-06
6.59863e-06
6.63452e-06
6.67127e-06
6.71274e-06
6.75494e-06
6.80303e-06
6.85203e-06
6.90804e-06
6.9657e-06
7.03117e-06
7.0998e-06
7.17684e-06
7.25886e-06
7.35111e-06
7.44863e-06
7.56091e-06
7.67732e-06
7.81105e-06
7.95032e-06
8.10319e-06
8.26343e-06
8.46167e-06
8.68037e-06
8.83366e-06
8.85087e-06
8.8317e-06
8.75351e-06
8.72825e-06
8.92382e-06
9.91047e-06
1.27019e-05
1.54123e-05
1.58553e-05
6.2227e-06
6.23121e-06
6.23981e-06
6.24877e-06
6.25802e-06
6.26756e-06
6.27739e-06
6.28752e-06
6.29798e-06
6.30878e-06
6.31993e-06
6.33146e-06
6.34337e-06
6.35569e-06
6.36844e-06
6.38164e-06
6.39532e-06
6.4095e-06
6.42422e-06
6.43953e-06
6.45543e-06
6.472e-06
6.48926e-06
6.5073e-06
6.52612e-06
6.54585e-06
6.56649e-06
6.58821e-06
6.611e-06
6.63505e-06
6.66035e-06
6.6872e-06
6.71541e-06
6.74559e-06
6.77731e-06
6.8117e-06
6.84745e-06
6.88687e-06
6.92756e-06
6.97316e-06
7.01991e-06
7.07281e-06
7.12727e-06
7.18893e-06
7.25325e-06
7.3256e-06
7.40222e-06
7.48835e-06
7.57935e-06
7.68445e-06
7.78994e-06
7.92048e-06
8.03996e-06
8.19559e-06
8.33608e-06
8.50838e-06
8.72569e-06
8.87974e-06
8.95152e-06
8.938e-06
8.82587e-06
8.64468e-06
8.41904e-06
8.45786e-06
9.35446e-06
1.1781e-05
1.43005e-05
1.6171e-05
1.74222e-05
6.44494e-06
6.45437e-06
6.46392e-06
6.47388e-06
6.48421e-06
6.49487e-06
6.50587e-06
6.51724e-06
6.52898e-06
6.54112e-06
6.55366e-06
6.56662e-06
6.58003e-06
6.5939e-06
6.60824e-06
6.62309e-06
6.63846e-06
6.6544e-06
6.67092e-06
6.68808e-06
6.7059e-06
6.72442e-06
6.74373e-06
6.76382e-06
6.78486e-06
6.80673e-06
6.82981e-06
6.85374e-06
6.87923e-06
6.90558e-06
6.93392e-06
6.96315e-06
6.99479e-06
7.0276e-06
7.06324e-06
7.10048e-06
7.14068e-06
7.18334e-06
7.22924e-06
7.27851e-06
7.33156e-06
7.38874e-06
7.45106e-06
7.5179e-06
7.59208e-06
7.67105e-06
7.75965e-06
7.85457e-06
7.95894e-06
8.07409e-06
8.19354e-06
8.33108e-06
8.47086e-06
8.62804e-06
8.82091e-06
8.98727e-06
9.07734e-06
9.06951e-06
9.00826e-06
8.87726e-06
8.46476e-06
8.11078e-06
8.08341e-06
8.90867e-06
1.09307e-05
1.31735e-05
1.52633e-05
1.66512e-05
1.81446e-05
6.71574e-06
6.72577e-06
6.73596e-06
6.74662e-06
6.75771e-06
6.7692e-06
6.7811e-06
6.79342e-06
6.8062e-06
6.81943e-06
6.83315e-06
6.84737e-06
6.8621e-06
6.87736e-06
6.89318e-06
6.90957e-06
6.92658e-06
6.94421e-06
6.96253e-06
6.98154e-06
7.00134e-06
7.02188e-06
7.04339e-06
7.06563e-06
7.08916e-06
7.11332e-06
7.13926e-06
7.16559e-06
7.1944e-06
7.22326e-06
7.25545e-06
7.28733e-06
7.32344e-06
7.35922e-06
7.39994e-06
7.44054e-06
7.48665e-06
7.53333e-06
7.58614e-06
7.64014e-06
7.70133e-06
7.76451e-06
7.83624e-06
7.91119e-06
7.99597e-06
8.08535e-06
8.18501e-06
8.29258e-06
8.40494e-06
8.53386e-06
8.66166e-06
8.81353e-06
8.99704e-06
9.142e-06
9.22753e-06
9.22486e-06
9.1798e-06
9.04038e-06
8.74298e-06
8.30821e-06
7.79209e-06
7.76107e-06
8.44144e-06
1.01025e-05
1.19732e-05
1.40102e-05
1.57363e-05
1.71888e-05
1.84041e-05
7.03801e-06
7.04968e-06
7.06157e-06
7.07402e-06
7.08698e-06
7.10041e-06
7.11431e-06
7.1287e-06
7.14359e-06
7.159e-06
7.17494e-06
7.19141e-06
7.20845e-06
7.22605e-06
7.24425e-06
7.26306e-06
7.28253e-06
7.30265e-06
7.32352e-06
7.34509e-06
7.36753e-06
7.3907e-06
7.41499e-06
7.43993e-06
7.46642e-06
7.49331e-06
7.5225e-06
7.55159e-06
7.58402e-06
7.61571e-06
7.65201e-06
7.68689e-06
7.72775e-06
7.76692e-06
7.81293e-06
7.85746e-06
7.90962e-06
7.96112e-06
8.02118e-06
8.08116e-06
8.15139e-06
8.22229e-06
8.30425e-06
8.38921e-06
8.48407e-06
8.58321e-06
8.69198e-06
8.8103e-06
8.92571e-06
9.07937e-06
9.23626e-06
9.36322e-06
9.41314e-06
9.39877e-06
9.34493e-06
9.22054e-06
8.94637e-06
8.43917e-06
7.9702e-06
7.36065e-06
7.27145e-06
7.84374e-06
8.94501e-06
1.06145e-05
1.24264e-05
1.46767e-05
1.63972e-05
1.77517e-05
1.85509e-05
7.44403e-06
7.45631e-06
7.46887e-06
7.48208e-06
7.49589e-06
7.51026e-06
7.52522e-06
7.54078e-06
7.55695e-06
7.57376e-06
7.59121e-06
7.60932e-06
7.6281e-06
7.64758e-06
7.66776e-06
7.68871e-06
7.71039e-06
7.73294e-06
7.75626e-06
7.78057e-06
7.80573e-06
7.83199e-06
7.8593e-06
7.88773e-06
7.91759e-06
7.94839e-06
7.98136e-06
8.01482e-06
8.05154e-06
8.08816e-06
8.12933e-06
8.16992e-06
8.21639e-06
8.26223e-06
8.31475e-06
8.36767e-06
8.42705e-06
8.4889e-06
8.55639e-06
8.62796e-06
8.70578e-06
8.7879e-06
8.87493e-06
8.97037e-06
9.06721e-06
9.16979e-06
9.29227e-06
9.43545e-06
9.54509e-06
9.62876e-06
9.62832e-06
9.6044e-06
9.50023e-06
9.36632e-06
9.06726e-06
8.66571e-06
8.0692e-06
7.29191e-06
6.75795e-06
6.63428e-06
6.93805e-06
7.69741e-06
9.15729e-06
1.07642e-05
1.3096e-05
1.502e-05
1.66354e-05
1.79451e-05
1.85525e-05
7.95359e-06
7.969e-06
7.98472e-06
8.00119e-06
8.01835e-06
8.03614e-06
8.05457e-06
8.07365e-06
8.09339e-06
8.11382e-06
8.13491e-06
8.15674e-06
8.17922e-06
8.20251e-06
8.22642e-06
8.25129e-06
8.27671e-06
8.3033e-06
8.33033e-06
8.35885e-06
8.38768e-06
8.41836e-06
8.44933e-06
8.48245e-06
8.51604e-06
8.55193e-06
8.58874e-06
8.62789e-06
8.66866e-06
8.71178e-06
8.75727e-06
8.80542e-06
8.85646e-06
8.91029e-06
8.96726e-06
9.02849e-06
9.09119e-06
9.16157e-06
9.22902e-06
9.30785e-06
9.38221e-06
9.46357e-06
9.54249e-06
9.64395e-06
9.74272e-06
9.83815e-06
9.90523e-06
9.90581e-06
9.8755e-06
9.79198e-06
9.66692e-06
9.43704e-06
9.05911e-06
8.74742e-06
8.11739e-06
7.46539e-06
7.07271e-06
6.52718e-06
6.5353e-06
6.33845e-06
6.91304e-06
7.70623e-06
9.27137e-06
1.09212e-05
1.3152e-05
1.52508e-05
1.68829e-05
1.66882e-05
1.65468e-05
8.63327e-06
8.649e-06
8.66514e-06
8.68215e-06
8.69999e-06
8.71866e-06
8.73816e-06
8.75855e-06
8.77978e-06
8.80198e-06
8.82501e-06
8.8491e-06
8.87399e-06
8.9001e-06
8.92692e-06
8.95525e-06
8.98414e-06
9.01493e-06
9.04609e-06
9.07961e-06
9.11334e-06
9.14987e-06
9.18659e-06
9.22634e-06
9.26661e-06
9.30985e-06
9.35416e-06
9.40122e-06
9.44965e-06
9.50087e-06
9.55295e-06
9.60812e-06
9.66409e-06
9.72249e-06
9.78229e-06
9.84352e-06
9.90467e-06
9.96351e-06
1.00242e-05
1.00796e-05
1.01392e-05
1.01763e-05
1.02247e-05
1.02622e-05
1.02458e-05
1.02008e-05
1.00771e-05
9.95168e-06
9.70464e-06
9.46997e-06
9.09194e-06
8.68781e-06
8.26257e-06
7.7911e-06
7.35977e-06
6.87187e-06
6.61225e-06
6.2778e-06
6.37914e-06
6.56504e-06
7.06547e-06
7.92741e-06
9.60566e-06
1.10708e-05
1.17236e-05
1.2057e-05
1.19545e-05
1.24958e-05
1.33563e-05
9.5633e-06
9.5866e-06
9.61036e-06
9.63521e-06
9.66107e-06
9.6879e-06
9.71562e-06
9.74436e-06
9.7739e-06
9.80457e-06
9.83593e-06
9.86848e-06
9.90162e-06
9.93594e-06
9.97051e-06
1.00065e-05
1.00424e-05
1.00798e-05
1.01168e-05
1.01551e-05
1.01929e-05
1.02318e-05
1.02699e-05
1.03085e-05
1.03465e-05
1.03836e-05
1.04202e-05
1.04542e-05
1.04886e-05
1.05186e-05
1.05488e-05
1.05742e-05
1.05985e-05
1.06187e-05
1.06374e-05
1.06537e-05
1.0664e-05
1.0668e-05
1.07101e-05
1.07153e-05
1.06956e-05
1.06416e-05
1.05562e-05
1.04399e-05
1.02917e-05
1.01176e-05
9.91966e-06
9.72193e-06
9.47027e-06
9.26267e-06
8.86951e-06
8.41265e-06
7.9455e-06
7.43265e-06
7.04209e-06
6.73781e-06
6.49116e-06
6.29155e-06
6.1993e-06
5.99524e-06
5.77782e-06
5.39261e-06
4.63847e-06
3.92066e-06
3.81646e-06
4.10731e-06
4.70037e-06
5.07766e-06
5.51274e-06
1.10892e-05
1.10941e-05
1.10993e-05
1.1105e-05
1.11111e-05
1.11172e-05
1.11239e-05
1.11304e-05
1.11377e-05
1.11438e-05
1.11505e-05
1.11558e-05
1.11595e-05
1.117e-05
1.11923e-05
1.11989e-05
1.12025e-05
1.12032e-05
1.12218e-05
1.12242e-05
1.12113e-05
1.11932e-05
1.11736e-05
1.11585e-05
1.11282e-05
1.11329e-05
1.11129e-05
1.11236e-05
1.11286e-05
1.11326e-05
1.11348e-05
1.1132e-05
1.11027e-05
1.10734e-05
1.10973e-05
1.10796e-05
1.10424e-05
1.10292e-05
1.10474e-05
1.10807e-05
1.11543e-05
1.12243e-05
1.13111e-05
1.14247e-05
1.14436e-05
1.13775e-05
1.1589e-05
1.14727e-05
1.10271e-05
1.02184e-05
9.44066e-06
8.62734e-06
7.78437e-06
6.86791e-06
5.91533e-06
5.09449e-06
4.3708e-06
3.60305e-06
2.70252e-06
2.05665e-06
1.63003e-06
1.33808e-06
1.12892e-06
1.11256e-06
1.26634e-06
1.93777e-06
2.37329e-06
2.37002e-06
1.9612e-06
1.07684e-05
1.07936e-05
1.08039e-05
1.08087e-05
1.08112e-05
1.07647e-05
1.07602e-05
1.07518e-05
1.07905e-05
1.08015e-05
1.0807e-05
1.07539e-05
1.07302e-05
1.07041e-05
1.07557e-05
1.07304e-05
1.07838e-05
1.07633e-05
1.08179e-05
1.08396e-05
1.08197e-05
1.08256e-05
1.08704e-05
1.0855e-05
1.08387e-05
1.09288e-05
1.11146e-05
1.13913e-05
1.17948e-05
1.22641e-05
1.28342e-05
1.34979e-05
1.42402e-05
1.49866e-05
1.57685e-05
1.65133e-05
1.72788e-05
1.79562e-05
1.86307e-05
1.91016e-05
1.94807e-05
1.98287e-05
2.02316e-05
2.01049e-05
1.95029e-05
1.82042e-05
1.64296e-05
1.46434e-05
1.28294e-05
1.06447e-05
8.31471e-06
6.04774e-06
4.02549e-06
2.56279e-06
1.6804e-06
1.15507e-06
8.41629e-07
6.60174e-07
5.27588e-07
4.28159e-07
3.41602e-07
3.01663e-07
3.06286e-07
3.80977e-07
5.29834e-07
7.25095e-07
7.98296e-07
7.55519e-07
5.95497e-07
3.10434e-05
3.19731e-05
3.29225e-05
3.38897e-05
3.48736e-05
3.58713e-05
3.68811e-05
3.79022e-05
3.89298e-05
3.9966e-05
4.10013e-05
4.20431e-05
4.3077e-05
4.4117e-05
4.51417e-05
4.61709e-05
4.71763e-05
4.81835e-05
4.91628e-05
5.01346e-05
5.10774e-05
5.20214e-05
5.2872e-05
5.38506e-05
5.45891e-05
5.5449e-05
5.60568e-05
5.62467e-05
5.77424e-05
5.79907e-05
5.78619e-05
5.85214e-05
5.82565e-05
5.7168e-05
5.56476e-05
5.39419e-05
5.20129e-05
4.98259e-05
4.73558e-05
4.45741e-05
4.14647e-05
3.8029e-05
3.42878e-05
3.0275e-05
2.60492e-05
2.17142e-05
1.72989e-05
1.31902e-05
9.09854e-06
5.30977e-06
2.4596e-06
8.77802e-07
3.00774e-07
1.98392e-07
2.17741e-07
2.5437e-07
2.79692e-07
2.91982e-07
2.96421e-07
3.00241e-07
3.0454e-07
3.02071e-07
2.82927e-07
2.4951e-07
2.10287e-07
1.70283e-07
1.266e-07
8.45325e-08
4.92784e-08
4.79835e-06
4.79845e-06
4.79841e-06
4.79794e-06
4.79583e-06
4.79499e-06
4.79374e-06
4.79293e-06
4.79292e-06
4.79289e-06
4.7926e-06
4.79436e-06
4.79631e-06
4.79705e-06
4.793e-06
4.78941e-06
4.78916e-06
4.78901e-06
4.78644e-06
4.7815e-06
4.7829e-06
4.78556e-06
4.78042e-06
4.77716e-06
4.77277e-06
4.76734e-06
4.76785e-06
4.76841e-06
4.77005e-06
4.76682e-06
4.76489e-06
4.76387e-06
4.76368e-06
4.75942e-06
4.75704e-06
4.75372e-06
4.753e-06
4.75052e-06
4.7467e-06
4.7441e-06
4.7396e-06
4.7397e-06
4.73777e-06
4.73436e-06
4.73298e-06
4.72925e-06
4.7271e-06
4.72598e-06
4.72379e-06
4.72077e-06
4.71681e-06
4.71674e-06
4.71836e-06
4.72147e-06
4.72326e-06
4.72288e-06
4.72191e-06
4.71941e-06
4.71724e-06
4.82538e-06
4.82502e-06
4.82318e-06
4.82252e-06
4.82054e-06
4.81994e-06
4.81944e-06
4.81964e-06
4.81987e-06
4.82086e-06
4.82214e-06
4.82295e-06
4.82245e-06
4.8187e-06
4.81522e-06
4.81426e-06
4.81467e-06
4.81292e-06
4.80817e-06
4.80678e-06
4.80819e-06
4.80872e-06
4.80234e-06
4.79949e-06
4.79396e-06
4.79e-06
4.79059e-06
4.79151e-06
4.79217e-06
4.78889e-06
4.7873e-06
4.78629e-06
4.78577e-06
4.78222e-06
4.77985e-06
4.77681e-06
4.77547e-06
4.77385e-06
4.77129e-06
4.76821e-06
4.76362e-06
4.76275e-06
4.7619e-06
4.7604e-06
4.75867e-06
4.75668e-06
4.75436e-06
4.75325e-06
4.75214e-06
4.75021e-06
4.74796e-06
4.74437e-06
4.74398e-06
4.74513e-06
4.74796e-06
4.75056e-06
4.75236e-06
4.75226e-06
4.75238e-06
4.85527e-06
4.85385e-06
4.85297e-06
4.85176e-06
4.85127e-06
4.85127e-06
4.85161e-06
4.85181e-06
4.85215e-06
4.85297e-06
4.85277e-06
4.85043e-06
4.84794e-06
4.84457e-06
4.84334e-06
4.8434e-06
4.84242e-06
4.8381e-06
4.83496e-06
4.83504e-06
4.83573e-06
4.8343e-06
4.82722e-06
4.82456e-06
4.81842e-06
4.81576e-06
4.81633e-06
4.81736e-06
4.81727e-06
4.81396e-06
4.8126e-06
4.81149e-06
4.81075e-06
4.80789e-06
4.80547e-06
4.80274e-06
4.80108e-06
4.79969e-06
4.79798e-06
4.79556e-06
4.79133e-06
4.78944e-06
4.78855e-06
4.78782e-06
4.78685e-06
4.78548e-06
4.78401e-06
4.78278e-06
4.78227e-06
4.78135e-06
4.77975e-06
4.7779e-06
4.7756e-06
4.77566e-06
4.77716e-06
4.77953e-06
4.78242e-06
4.78502e-06
4.78723e-06
4.88816e-06
4.88788e-06
4.88664e-06
4.88654e-06
4.88636e-06
4.88679e-06
4.88664e-06
4.88662e-06
4.88622e-06
4.88435e-06
4.88257e-06
4.8799e-06
4.87757e-06
4.87609e-06
4.8755e-06
4.87446e-06
4.87097e-06
4.86656e-06
4.86532e-06
4.86584e-06
4.86587e-06
4.86182e-06
4.85489e-06
4.85205e-06
4.84591e-06
4.8443e-06
4.84487e-06
4.84584e-06
4.8451e-06
4.84185e-06
4.84061e-06
4.83935e-06
4.83849e-06
4.83618e-06
4.8338e-06
4.83138e-06
4.8295e-06
4.82814e-06
4.82686e-06
4.82524e-06
4.82254e-06
4.81954e-06
4.8184e-06
4.81791e-06
4.81751e-06
4.81693e-06
4.81622e-06
4.81562e-06
4.81541e-06
4.81508e-06
4.81458e-06
4.81413e-06
4.81294e-06
4.81285e-06
4.81345e-06
4.81485e-06
4.81704e-06
4.81975e-06
4.8225e-06
4.92728e-06
4.92644e-06
4.92621e-06
4.92592e-06
4.92488e-06
4.92401e-06
4.92358e-06
4.92248e-06
4.92132e-06
4.91885e-06
4.91642e-06
4.91423e-06
4.91251e-06
4.91154e-06
4.91017e-06
4.90729e-06
4.90264e-06
4.89995e-06
4.89994e-06
4.90024e-06
4.89809e-06
4.89227e-06
4.88599e-06
4.8828e-06
4.87722e-06
4.87643e-06
4.87694e-06
4.87762e-06
4.87633e-06
4.87314e-06
4.87189e-06
4.87051e-06
4.86964e-06
4.86774e-06
4.86561e-06
4.86344e-06
4.86161e-06
4.86022e-06
4.85924e-06
4.85808e-06
4.85637e-06
4.85419e-06
4.85243e-06
4.85165e-06
4.85146e-06
4.85135e-06
4.85124e-06
4.85114e-06
4.85145e-06
4.852e-06
4.85268e-06
4.85331e-06
4.85371e-06
4.85424e-06
4.85497e-06
4.85608e-06
4.85767e-06
4.8598e-06
4.86214e-06
4.96935e-06
4.96814e-06
4.96784e-06
4.96726e-06
4.96617e-06
4.96472e-06
4.96312e-06
4.96094e-06
4.95881e-06
4.95616e-06
4.95395e-06
4.95255e-06
4.95126e-06
4.94961e-06
4.94662e-06
4.94204e-06
4.93831e-06
4.93753e-06
4.93781e-06
4.93656e-06
4.93231e-06
4.92587e-06
4.92024e-06
4.91664e-06
4.91194e-06
4.91179e-06
4.91203e-06
4.91247e-06
4.91066e-06
4.90764e-06
4.90638e-06
4.90491e-06
4.90404e-06
4.90236e-06
4.90052e-06
4.89861e-06
4.89689e-06
4.89565e-06
4.89491e-06
4.89424e-06
4.89317e-06
4.8917e-06
4.89025e-06
4.88936e-06
4.88931e-06
4.88956e-06
4.88997e-06
4.89038e-06
4.89108e-06
4.89213e-06
4.89353e-06
4.89514e-06
4.89674e-06
4.89834e-06
4.8999e-06
4.9015e-06
4.90325e-06
4.90519e-06
4.90727e-06
5.01559e-06
5.01416e-06
5.01284e-06
5.01135e-06
5.00954e-06
5.00772e-06
5.00578e-06
5.00375e-06
5.00183e-06
4.9999e-06
4.99812e-06
4.99651e-06
4.99395e-06
4.99042e-06
4.98611e-06
4.98217e-06
4.9807e-06
4.98067e-06
4.9797e-06
4.97639e-06
4.97064e-06
4.96413e-06
4.95902e-06
4.95527e-06
4.95143e-06
4.95164e-06
4.95174e-06
4.95173e-06
4.94944e-06
4.94651e-06
4.94516e-06
4.94361e-06
4.94277e-06
4.94135e-06
4.93979e-06
4.9382e-06
4.93676e-06
4.93571e-06
4.9351e-06
4.93473e-06
4.93421e-06
4.93333e-06
4.93239e-06
4.93189e-06
4.93198e-06
4.93269e-06
4.93369e-06
4.93471e-06
4.93587e-06
4.93728e-06
4.93905e-06
4.94116e-06
4.94347e-06
4.9459e-06
4.94834e-06
4.95072e-06
4.95313e-06
4.95544e-06
4.95774e-06
5.06419e-06
5.06249e-06
5.06097e-06
5.05946e-06
5.0578e-06
5.05622e-06
5.05442e-06
5.05245e-06
5.05028e-06
5.04787e-06
5.04512e-06
5.04206e-06
5.03821e-06
5.03421e-06
5.0307e-06
5.02852e-06
5.02793e-06
5.0269e-06
5.02374e-06
5.01876e-06
5.01234e-06
5.00633e-06
5.00158e-06
4.99789e-06
4.99484e-06
4.99519e-06
4.99505e-06
4.99463e-06
4.99194e-06
4.98924e-06
4.98788e-06
4.98636e-06
4.98554e-06