/*--------------------------------*- C++ -*----------------------------------*\
| =========                 |                                                 |
| \\      /  F ield         | OpenFOAM: The Open Source CFD Toolbox           |
|  \\    /   O peration     | Version:  2312                                  |
|   \\  /    A nd           | Website:  www.openfoam.com                      |
|    \\/     M anipulation  |                                                 |
\*---------------------------------------------------------------------------*/
FoamFile
{
    version     2.0;
    format      ascii;
    arch        "LSB;label=32;scalar=64";
    class       volScalarField;
    location    "400";
    object      nut;
}
// * * * * * * * * * * * * * * * * * * * * * * * * * * * * * * * * * * * * * //

dimensions      [0 2 -1 0 0 0 0];

internalField   nonuniform List<scalar> 
76025
(
7.12746e-05
7.24596e-05
7.34386e-05
7.3099e-05
7.25024e-05
7.03396e-05
7.16698e-05
7.11944e-05
7.31458e-05
7.2712e-05
7.21827e-05
7.18681e-05
7.2746e-05
7.29379e-05
7.1948e-05
7.32973e-05
7.13574e-05
7.18234e-05
7.16403e-05
7.19948e-05
7.05797e-05
7.04682e-05
6.98168e-05
6.84877e-05
6.85211e-05
6.72589e-05
6.43858e-05
6.61429e-05
6.31838e-05
6.23029e-05
6.35786e-05
6.23395e-05
5.98501e-05
6.10742e-05
5.9715e-05
6.02451e-05
5.747e-05
5.58891e-05
5.67347e-05
5.60677e-05
5.55711e-05
5.34368e-05
5.23198e-05
5.32701e-05
5.29788e-05
5.26334e-05
5.21594e-05
5.29066e-05
5.36156e-05
5.43439e-05
5.46379e-05
5.49656e-05
5.55513e-05
5.53091e-05
5.50146e-05
5.51609e-05
5.42498e-05
5.28752e-05
5.14161e-05
5.10157e-05
5.0292e-05
4.71784e-05
4.71688e-05
4.61497e-05
4.44307e-05
4.40896e-05
4.35117e-05
4.26908e-05
4.22023e-05
6.66137e-05
6.79287e-05
6.85152e-05
6.88715e-05
6.86754e-05
6.7868e-05
6.77492e-05
6.72109e-05
6.75682e-05
6.79922e-05
6.81087e-05
6.80074e-05
6.81115e-05
6.80683e-05
6.80961e-05
6.84038e-05
6.79941e-05
6.80925e-05
6.78532e-05
6.78974e-05
6.75401e-05
6.75208e-05
6.71615e-05
6.65533e-05
6.61285e-05
6.57116e-05
6.50559e-05
6.45947e-05
6.3848e-05
6.31583e-05
6.28728e-05
6.23439e-05
6.1734e-05
6.13184e-05
6.0735e-05
6.02121e-05
5.98582e-05
5.9878e-05
5.99383e-05
5.97287e-05
5.93655e-05
5.95185e-05
5.9971e-05
6.0087e-05
5.99613e-05
6.00962e-05
6.05352e-05
6.04926e-05
6.01826e-05
6.0183e-05
6.0137e-05
5.99115e-05
5.96608e-05
5.92795e-05
5.80683e-05
5.69273e-05
5.60078e-05
5.47204e-05
5.37535e-05
5.28456e-05
5.15109e-05
5.00644e-05
4.89381e-05
4.75871e-05
4.63834e-05
4.48701e-05
4.49916e-05
4.36892e-05
4.48925e-05
6.2054e-05
6.30725e-05
6.33838e-05
6.3669e-05
6.39151e-05
6.39696e-05
6.3884e-05
6.36522e-05
6.34882e-05
6.35033e-05
6.36104e-05
6.3709e-05
6.38168e-05
6.38669e-05
6.3916e-05
6.40174e-05
6.40876e-05
6.41927e-05
6.42458e-05
6.4282e-05
6.43026e-05
6.43104e-05
6.42023e-05
6.39834e-05
6.37806e-05
6.36276e-05
6.34695e-05
6.31443e-05
6.28012e-05
6.24775e-05
6.22012e-05
6.20042e-05
6.1781e-05
6.14834e-05
6.11994e-05
6.09222e-05
6.07475e-05
6.06554e-05
6.06487e-05
6.06733e-05
6.05986e-05
6.06247e-05
6.06632e-05
6.0569e-05
6.04392e-05
6.03225e-05
6.01658e-05
5.98039e-05
5.93735e-05
5.90104e-05
5.8578e-05
5.79929e-05
5.73095e-05
5.64798e-05
5.54135e-05
5.43409e-05
5.329e-05
5.21087e-05
5.09663e-05
4.98769e-05
4.87906e-05
4.74631e-05
4.63037e-05
4.50292e-05
4.41812e-05
4.29859e-05
4.28369e-05
4.16332e-05
4.37461e-05
5.84099e-05
5.89645e-05
5.89334e-05
5.89455e-05
5.91062e-05
5.9306e-05
5.94466e-05
5.9516e-05
5.95055e-05
5.94731e-05
5.94681e-05
5.95042e-05
5.9577e-05
5.96599e-05
5.97451e-05
5.98386e-05
5.99651e-05
6.01007e-05
6.02564e-05
6.03975e-05
6.05265e-05
6.06229e-05
6.0687e-05
6.07145e-05
6.07286e-05
6.07257e-05
6.0697e-05
6.06212e-05
6.05178e-05
6.04224e-05
6.03554e-05
6.02972e-05
6.0206e-05
6.00812e-05
5.99533e-05
5.9827e-05
5.97078e-05
5.95904e-05
5.95764e-05
5.95954e-05
5.95014e-05
5.93813e-05
5.92541e-05
5.90811e-05
5.88466e-05
5.85551e-05
5.82102e-05
5.77812e-05
5.72802e-05
5.6746e-05
5.6161e-05
5.54954e-05
5.47535e-05
5.39232e-05
5.29863e-05
5.19815e-05
5.09781e-05
4.99134e-05
4.88995e-05
4.78334e-05
4.68429e-05
4.56533e-05
4.47155e-05
4.35026e-05
4.29489e-05
4.17442e-05
4.17584e-05
4.0571e-05
4.32289e-05
5.47657e-05
5.53189e-05
5.51991e-05
5.50457e-05
5.50276e-05
5.51031e-05
5.52227e-05
5.53556e-05
5.54675e-05
5.55447e-05
5.55979e-05
5.56467e-05
5.57076e-05
5.57856e-05
5.58773e-05
5.59801e-05
5.61012e-05
5.62389e-05
5.63958e-05
5.65628e-05
5.67321e-05
5.68951e-05
5.70476e-05
5.71828e-05
5.73015e-05
5.74059e-05
5.7493e-05
5.75605e-05
5.76091e-05
5.76456e-05
5.76776e-05
5.76997e-05
5.77006e-05
5.76777e-05
5.76356e-05
5.75839e-05
5.75198e-05
5.74315e-05
5.74177e-05
5.74228e-05
5.73281e-05
5.71899e-05
5.70225e-05
5.68084e-05
5.6534e-05
5.62038e-05
5.58221e-05
5.5377e-05
5.48687e-05
5.43143e-05
5.37165e-05
5.30605e-05
5.23408e-05
5.15517e-05
5.06971e-05
4.97864e-05
4.8872e-05
4.79084e-05
4.69908e-05
4.59822e-05
4.51046e-05
4.40127e-05
4.32197e-05
4.20955e-05
4.16606e-05
4.05854e-05
4.06412e-05
3.98443e-05
4.28315e-05
5.08086e-05
5.15515e-05
5.15871e-05
5.14973e-05
5.14587e-05
5.14653e-05
5.151e-05
5.15891e-05
5.16911e-05
5.18009e-05
5.19075e-05
5.20067e-05
5.21013e-05
5.21968e-05
5.22973e-05
5.24054e-05
5.25243e-05
5.2656e-05
5.28014e-05
5.29596e-05
5.31275e-05
5.33008e-05
5.34745e-05
5.36439e-05
5.38065e-05
5.39622e-05
5.41088e-05
5.42433e-05
5.43642e-05
5.4472e-05
5.45678e-05
5.46506e-05
5.47162e-05
5.47604e-05
5.4782e-05
5.47882e-05
5.47702e-05
5.47191e-05
5.47223e-05
5.47322e-05
5.46526e-05
5.45257e-05
5.43596e-05
5.41494e-05
5.38887e-05
5.35767e-05
5.32148e-05
5.27983e-05
5.23295e-05
5.18124e-05
5.12525e-05
5.06412e-05
4.99805e-05
4.92639e-05
4.85057e-05
4.76973e-05
4.68859e-05
4.6021e-05
4.52034e-05
4.42798e-05
4.35063e-05
4.24998e-05
4.18479e-05
4.08e-05
4.05119e-05
3.95321e-05
3.97274e-05
3.9568e-05
4.17897e-05
4.691e-05
4.77221e-05
4.79036e-05
4.79533e-05
4.80115e-05
4.80651e-05
4.81148e-05
4.81722e-05
4.82455e-05
4.83364e-05
4.84418e-05
4.85556e-05
4.86729e-05
4.87914e-05
4.89112e-05
4.90337e-05
4.91609e-05
4.92946e-05
4.94361e-05
4.95861e-05
4.97441e-05
4.99087e-05
5.0078e-05
5.02498e-05
5.04218e-05
5.05923e-05
5.0759e-05
5.09195e-05
5.10719e-05
5.1215e-05
5.13474e-05
5.14676e-05
5.15728e-05
5.16594e-05
5.17249e-05
5.17731e-05
5.17918e-05
5.17813e-05
5.18142e-05
5.18427e-05
5.17917e-05
5.16961e-05
5.15614e-05
5.13862e-05
5.11662e-05
5.08993e-05
5.05863e-05
5.02246e-05
4.98178e-05
4.93639e-05
4.88705e-05
4.83301e-05
4.77509e-05
4.71233e-05
4.64662e-05
4.57596e-05
4.50531e-05
4.4286e-05
4.35634e-05
4.27366e-05
4.20416e-05
4.11556e-05
4.05714e-05
3.96704e-05
3.94545e-05
3.8559e-05
3.91435e-05
3.86717e-05
4.32344e-05
4.34065e-05
4.41553e-05
4.43649e-05
4.44844e-05
4.46246e-05
4.47551e-05
4.48633e-05
4.49556e-05
4.5042e-05
4.51314e-05
4.52299e-05
4.53391e-05
4.54576e-05
4.55833e-05
4.57142e-05
4.58492e-05
4.59881e-05
4.61309e-05
4.62782e-05
4.64302e-05
4.65871e-05
4.67487e-05
4.69144e-05
4.70835e-05
4.72548e-05
4.7427e-05
4.75984e-05
4.77673e-05
4.79319e-05
4.80905e-05
4.82411e-05
4.8382e-05
4.85111e-05
4.86249e-05
4.8721e-05
4.88019e-05
4.88526e-05
4.88836e-05
4.89513e-05
4.90042e-05
4.89881e-05
4.89328e-05
4.88415e-05
4.87137e-05
4.85455e-05
4.83357e-05
4.80841e-05
4.77887e-05
4.74532e-05
4.70733e-05
4.66581e-05
4.61983e-05
4.57066e-05
4.51692e-05
4.46094e-05
4.39977e-05
4.33907e-05
4.27102e-05
4.20839e-05
4.13396e-05
4.07336e-05
3.9954e-05
3.94297e-05
3.87002e-05
3.84767e-05
3.77791e-05
3.85186e-05
3.83751e-05
4.3728e-05
4.03369e-05
4.09934e-05
4.11663e-05
4.12798e-05
4.14366e-05
4.16019e-05
4.17546e-05
4.18911e-05
4.2014e-05
4.21287e-05
4.22414e-05
4.23568e-05
4.24774e-05
4.26042e-05
4.27373e-05
4.28765e-05
4.30211e-05
4.31707e-05
4.33249e-05
4.34833e-05
4.36456e-05
4.38114e-05
4.39805e-05
4.41522e-05
4.43261e-05
4.45012e-05
4.46766e-05
4.48511e-05
4.50233e-05
4.51917e-05
4.53547e-05
4.55106e-05
4.56575e-05
4.57924e-05
4.59132e-05
4.60215e-05
4.61008e-05
4.61715e-05
4.62732e-05
4.6351e-05
4.63709e-05
4.63579e-05
4.63128e-05
4.62355e-05
4.61217e-05
4.59716e-05
4.5783e-05
4.55557e-05
4.52916e-05
4.49864e-05
4.46492e-05
4.4269e-05
4.38614e-05
4.34087e-05
4.29366e-05
4.2412e-05
4.18932e-05
4.12934e-05
4.07603e-05
4.00882e-05
3.95877e-05
3.88803e-05
3.84525e-05
3.78638e-05
3.75985e-05
3.72332e-05
3.81417e-05
3.86816e-05
4.44579e-05
3.75798e-05
3.81721e-05
3.83111e-05
3.83984e-05
3.8536e-05
3.8695e-05
3.88554e-05
3.90107e-05
3.91587e-05
3.92998e-05
3.9436e-05
3.95699e-05
3.97035e-05
3.98387e-05
3.99771e-05
4.01199e-05
4.02676e-05
4.04206e-05
4.05788e-05
4.0742e-05
4.09096e-05
4.10813e-05
4.12565e-05
4.14348e-05
4.16156e-05
4.1798e-05
4.19815e-05
4.2165e-05
4.23475e-05
4.25277e-05
4.27044e-05
4.28761e-05
4.30409e-05
4.31962e-05
4.33409e-05
4.34753e-05
4.35819e-05
4.36912e-05
4.38265e-05
4.39294e-05
4.39858e-05
4.40148e-05
4.40154e-05
4.39875e-05
4.39263e-05
4.38336e-05
4.3705e-05
4.35424e-05
4.33448e-05
4.31101e-05
4.2845e-05
4.25389e-05
4.22077e-05
4.18326e-05
4.14378e-05
4.09958e-05
4.05514e-05
4.00391e-05
3.95833e-05
3.89961e-05
3.85965e-05
3.7931e-05
3.76696e-05
3.70632e-05
3.69677e-05
3.68675e-05
3.82284e-05
4.09449e-05
4.65605e-05
3.50328e-05
3.55882e-05
3.57155e-05
3.57896e-05
3.59094e-05
3.60518e-05
3.62013e-05
3.63534e-05
3.65061e-05
3.66583e-05
3.68098e-05
3.69605e-05
3.71106e-05
3.72603e-05
3.74108e-05
3.75632e-05
3.77184e-05
3.78775e-05
3.8041e-05
3.82091e-05
3.83819e-05
3.85593e-05
3.8741e-05
3.89266e-05
3.91156e-05
3.93073e-05
3.95011e-05
3.96962e-05
3.98916e-05
4.00862e-05
4.0279e-05
4.04684e-05
4.0653e-05
4.08302e-05
4.09999e-05
4.11603e-05
4.12952e-05
4.14431e-05
4.1611e-05
4.1739e-05
4.1832e-05
4.19014e-05
4.19458e-05
4.19647e-05
4.19531e-05
4.19139e-05
4.18407e-05
4.1738e-05
4.16012e-05
4.14314e-05
4.12318e-05
4.09937e-05
4.07322e-05
4.04279e-05
4.01047e-05
3.97416e-05
3.93633e-05
3.89507e-05
3.85458e-05
3.80834e-05
3.77177e-05
3.71481e-05
3.70158e-05
3.63209e-05
3.67518e-05
3.66981e-05
4.0444e-05
4.34367e-05
5.02663e-05
3.26503e-05
3.31789e-05
3.3307e-05
3.33817e-05
3.34956e-05
3.36289e-05
3.37686e-05
3.39126e-05
3.40605e-05
3.42121e-05
3.43673e-05
3.45257e-05
3.46864e-05
3.48485e-05
3.5012e-05
3.51772e-05
3.53445e-05
3.55145e-05
3.56878e-05
3.5865e-05
3.60464e-05
3.62321e-05
3.64223e-05
3.66168e-05
3.68154e-05
3.70176e-05
3.72231e-05
3.7431e-05
3.76406e-05
3.78509e-05
3.80612e-05
3.82696e-05
3.84751e-05
3.86753e-05
3.88707e-05
3.90568e-05
3.92223e-05
3.94085e-05
3.96064e-05
3.97606e-05
3.98903e-05
3.99984e-05
4.00848e-05
4.01477e-05
4.0183e-05
4.01935e-05
4.01719e-05
4.01246e-05
4.00437e-05
3.9934e-05
3.97946e-05
3.96198e-05
3.94237e-05
3.91851e-05
3.89339e-05
3.86424e-05
3.83369e-05
3.80164e-05
3.7657e-05
3.73295e-05
3.69199e-05
3.65817e-05
3.63569e-05
3.59992e-05
3.68768e-05
3.80963e-05
4.4347e-05
5.01549e-05
4.54869e-05
3.0432e-05
3.09338e-05
3.10634e-05
3.11422e-05
3.12563e-05
3.13873e-05
3.15231e-05
3.16625e-05
3.18059e-05
3.1954e-05
3.21076e-05
3.22668e-05
3.2431e-05
3.25992e-05
3.27711e-05
3.29464e-05
3.31249e-05
3.33068e-05
3.34923e-05
3.36816e-05
3.3875e-05
3.40726e-05
3.42747e-05
3.44813e-05
3.46923e-05
3.49076e-05
3.51268e-05
3.53494e-05
3.55749e-05
3.58024e-05
3.60313e-05
3.62598e-05
3.64871e-05
3.6711e-05
3.69325e-05
3.71437e-05
3.73439e-05
3.75654e-05
3.77891e-05
3.7972e-05
3.81376e-05
3.82829e-05
3.84102e-05
3.85148e-05
3.85952e-05
3.86528e-05
3.868e-05
3.86851e-05
3.86567e-05
3.86043e-05
3.85214e-05
3.84084e-05
3.82745e-05
3.81011e-05
3.79222e-05
3.76962e-05
3.74737e-05
3.72138e-05
3.69275e-05
3.6657e-05
3.62823e-05
3.61432e-05
3.59589e-05
3.62913e-05
3.8425e-05
4.21307e-05
5.12605e-05
4.56142e-05
3.75866e-05
2.8371e-05
2.88453e-05
2.8974e-05
2.90554e-05
2.91697e-05
2.92999e-05
2.94346e-05
2.95723e-05
2.97137e-05
2.98596e-05
3.00113e-05
3.01693e-05
3.03334e-05
3.05033e-05
3.06786e-05
3.08592e-05
3.10449e-05
3.12356e-05
3.14313e-05
3.16318e-05
3.18374e-05
3.20479e-05
3.22635e-05
3.24841e-05
3.27098e-05
3.29404e-05
3.31756e-05
3.34152e-05
3.36586e-05
3.39053e-05
3.41544e-05
3.44047e-05
3.46553e-05
3.49044e-05
3.5153e-05
3.53901e-05
3.56283e-05
3.58843e-05
3.61326e-05
3.63472e-05
3.65503e-05
3.67327e-05
3.69014e-05
3.70465e-05
3.71721e-05
3.72745e-05
3.73501e-05
3.74054e-05
3.74281e-05
3.74323e-05
3.74038e-05
3.73539e-05
3.72793e-05
3.71754e-05
3.70615e-05
3.69032e-05
3.67494e-05
3.65369e-05
3.63195e-05
3.60835e-05
3.58857e-05
3.59643e-05
3.62614e-05
3.80129e-05
4.2909e-05
4.85166e-05
4.07158e-05
3.57555e-05
2.30586e-05
2.64688e-05
2.69171e-05
2.70439e-05
2.71263e-05
2.72394e-05
2.73678e-05
2.75009e-05
2.76372e-05
2.77772e-05
2.79218e-05
2.8072e-05
2.82286e-05
2.83917e-05
2.85613e-05
2.87372e-05
2.89196e-05
2.91085e-05
2.93039e-05
2.95057e-05
2.9714e-05
2.99288e-05
3.01499e-05
3.03774e-05
3.06112e-05
3.08512e-05
3.10973e-05
3.13493e-05
3.16068e-05
3.18695e-05
3.21368e-05
3.24079e-05
3.26817e-05
3.29573e-05
3.32336e-05
3.351e-05
3.37752e-05
3.40533e-05
3.43436e-05
3.46164e-05
3.48648e-05
3.51061e-05
3.53267e-05
3.55383e-05
3.57245e-05
3.58976e-05
3.60441e-05
3.61712e-05
3.6275e-05
3.63521e-05
3.64116e-05
3.64401e-05
3.64533e-05
3.6438e-05
3.64024e-05
3.63446e-05
3.62506e-05
3.61453e-05
3.59919e-05
3.58554e-05
3.57796e-05
3.59454e-05
3.64963e-05
3.82435e-05
4.26938e-05
4.73014e-05
4.04852e-05
3.0149e-05
2.41069e-05
1.96843e-05
2.47049e-05
2.51295e-05
2.5255e-05
2.53384e-05
2.54502e-05
2.55766e-05
2.57077e-05
2.58423e-05
2.59809e-05
2.61243e-05
2.62734e-05
2.6429e-05
2.65912e-05
2.67602e-05
2.69361e-05
2.71191e-05
2.73093e-05
2.7507e-05
2.77123e-05
2.79253e-05
2.81461e-05
2.83748e-05
2.86112e-05
2.88556e-05
2.91076e-05
2.93674e-05
2.96346e-05
2.99092e-05
3.01904e-05
3.04784e-05
3.07716e-05
3.107e-05
3.13718e-05
3.16772e-05
3.19823e-05
3.22822e-05
3.26011e-05
3.29264e-05
3.32299e-05
3.35187e-05
3.38003e-05
3.40641e-05
3.43192e-05
3.45502e-05
3.47709e-05
3.49636e-05
3.51437e-05
3.52962e-05
3.54316e-05
3.55452e-05
3.56344e-05
3.57074e-05
3.57505e-05
3.57757e-05
3.57673e-05
3.57406e-05
3.56985e-05
3.56788e-05
3.57535e-05
3.6106e-05
3.69203e-05
3.87911e-05
4.31011e-05
4.36344e-05
3.62643e-05
2.78503e-05
2.11086e-05
1.84571e-05
2.12336e-05
2.3091e-05
2.34933e-05
2.36175e-05
2.37019e-05
2.38126e-05
2.3937e-05
2.40661e-05
2.41989e-05
2.43358e-05
2.44777e-05
2.46254e-05
2.47798e-05
2.4941e-05
2.51092e-05
2.52847e-05
2.54677e-05
2.56586e-05
2.58576e-05
2.6065e-05
2.62812e-05
2.65063e-05
2.67406e-05
2.6984e-05
2.7237e-05
2.74992e-05
2.77712e-05
2.80522e-05
2.83427e-05
2.86418e-05
2.89499e-05
2.92648e-05
2.95879e-05
2.9916e-05
3.02512e-05
3.05846e-05
3.09251e-05
3.12812e-05
3.16372e-05
3.19735e-05
3.23059e-05
3.26267e-05
3.29398e-05
3.32373e-05
3.35217e-05
3.37887e-05
3.40371e-05
3.4269e-05
3.44783e-05
3.46713e-05
3.4842e-05
3.49901e-05
3.51216e-05
3.52198e-05
3.53112e-05
3.53708e-05
3.54798e-05
3.55821e-05
3.59254e-05
3.639e-05
3.76657e-05
3.93637e-05
4.33448e-05
3.8884e-05
3.19285e-05
2.44172e-05
1.86278e-05
1.63364e-05
1.81886e-05
1.93177e-05
2.16041e-05
2.1985e-05
2.21074e-05
2.21924e-05
2.2302e-05
2.24248e-05
2.25523e-05
2.26837e-05
2.28194e-05
2.29602e-05
2.31069e-05
2.32604e-05
2.34209e-05
2.35887e-05
2.3764e-05
2.39472e-05
2.41387e-05
2.43389e-05
2.45481e-05
2.47668e-05
2.49953e-05
2.52341e-05
2.54832e-05
2.57433e-05
2.60142e-05
2.62966e-05
2.659e-05
2.68954e-05
2.72116e-05
2.75396e-05
2.78771e-05
2.8226e-05
2.85825e-05
2.89493e-05
2.93151e-05
2.9702e-05
3.01006e-05
3.04951e-05
3.08747e-05
3.12585e-05
3.1624e-05
3.19915e-05
3.23335e-05
3.26751e-05
3.29871e-05
3.32954e-05
3.35742e-05
3.38447e-05
3.40865e-05
3.43204e-05
3.45195e-05
3.4727e-05
3.48993e-05
3.51168e-05
3.53601e-05
3.5717e-05
3.62058e-05
3.7042e-05
3.83011e-05
3.99119e-05
4.15717e-05
3.40316e-05
2.71888e-05
2.06475e-05
1.59064e-05
1.40863e-05
1.5587e-05
1.76395e-05
1.79463e-05
2.02765e-05
2.06366e-05
2.07562e-05
2.0841e-05
2.09487e-05
2.10692e-05
2.11948e-05
2.13244e-05
2.14586e-05
2.15981e-05
2.17437e-05
2.18963e-05
2.20561e-05
2.22235e-05
2.23988e-05
2.25823e-05
2.27746e-05
2.29762e-05
2.31875e-05
2.34092e-05
2.36415e-05
2.38852e-05
2.41406e-05
2.44083e-05
2.46884e-05
2.49816e-05
2.52879e-05
2.56078e-05
2.59411e-05
2.6288e-05
2.66479e-05
2.70213e-05
2.74066e-05
2.78028e-05
2.82068e-05
2.86347e-05
2.9067e-05
2.94971e-05
2.99219e-05
3.03542e-05
3.07731e-05
3.11959e-05
3.15973e-05
3.19974e-05
3.23706e-05
3.27364e-05
3.3074e-05
3.3404e-05
3.37048e-05
3.4019e-05
3.42947e-05
3.46585e-05
3.49791e-05
3.54979e-05
3.60191e-05
3.67471e-05
3.77501e-05
3.86661e-05
3.99504e-05
3.61919e-05
2.90509e-05
2.27337e-05
1.71413e-05
1.32613e-05
1.20094e-05
1.32587e-05
1.52645e-05
1.71343e-05
1.84745e-05
1.90569e-05
1.93979e-05
1.95146e-05
1.95986e-05
1.97041e-05
1.9822e-05
1.99452e-05
2.00728e-05
2.02053e-05
2.03434e-05
2.04879e-05
2.06394e-05
2.07984e-05
2.09653e-05
2.11404e-05
2.13242e-05
2.15171e-05
2.17198e-05
2.19329e-05
2.21569e-05
2.23926e-05
2.26406e-05
2.29017e-05
2.31764e-05
2.34659e-05
2.37702e-05
2.4091e-05
2.44273e-05
2.47814e-05
2.51508e-05
2.55391e-05
2.59419e-05
2.63636e-05
2.67948e-05
2.72531e-05
2.77334e-05
2.82189e-05
2.87058e-05
2.91965e-05
2.9687e-05
3.01737e-05
3.06525e-05
3.11219e-05
3.15738e-05
3.20151e-05
3.24317e-05
3.28441e-05
3.32429e-05
3.36521e-05
3.40968e-05
3.45732e-05
3.51618e-05
3.57977e-05
3.65218e-05
3.73181e-05
3.79042e-05
3.82411e-05
3.70603e-05
3.02075e-05
2.41082e-05
1.83785e-05
1.38334e-05
1.09948e-05
1.021e-05
1.11995e-05
1.30116e-05
1.49889e-05
1.63333e-05
1.79972e-05
1.80252e-05
1.83484e-05
1.84625e-05
1.85458e-05
1.86492e-05
1.87644e-05
1.8885e-05
1.90104e-05
1.91409e-05
1.92772e-05
1.94201e-05
1.95703e-05
1.97283e-05
1.98946e-05
2.00694e-05
2.02534e-05
2.04472e-05
2.06513e-05
2.08666e-05
2.10935e-05
2.13331e-05
2.15858e-05
2.18528e-05
2.21342e-05
2.24322e-05
2.27457e-05
2.30789e-05
2.34281e-05
2.38006e-05
2.41888e-05
2.46036e-05
2.50329e-05
2.54892e-05
2.59566e-05
2.64603e-05
2.69706e-05
2.74982e-05
2.80308e-05
2.85844e-05
2.91345e-05
2.96972e-05
3.02455e-05
3.07992e-05
3.13333e-05
3.18726e-05
3.23987e-05
3.29446e-05
3.35151e-05
3.41119e-05
3.47922e-05
3.54645e-05
3.61733e-05
3.68236e-05
3.69894e-05
3.66832e-05
3.59483e-05
2.99794e-05
2.40797e-05
1.89211e-05
1.44839e-05
1.09748e-05
9.008e-06
8.56896e-06
9.39331e-06
1.0846e-05
1.26749e-05
1.42315e-05
1.55669e-05
1.73375e-05
1.7048e-05
1.73562e-05
1.74677e-05
1.75498e-05
1.76505e-05
1.77628e-05
1.78807e-05
1.80036e-05
1.81318e-05
1.8266e-05
1.84071e-05
1.85556e-05
1.87122e-05
1.88773e-05
1.90513e-05
1.92349e-05
1.94287e-05
1.96335e-05
1.98503e-05
2.00799e-05
2.03237e-05
2.05821e-05
2.08573e-05
2.11488e-05
2.14602e-05
2.1789e-05
2.21415e-05
2.25118e-05
2.29109e-05
2.33275e-05
2.3779e-05
2.42467e-05
2.47527e-05
2.52851e-05
2.58702e-05
2.64601e-05
2.70825e-05
2.77063e-05
2.83563e-05
2.89945e-05
2.96517e-05
3.0289e-05
3.09449e-05
3.15928e-05
3.22622e-05
3.29353e-05
3.36366e-05
3.4347e-05
3.4965e-05
3.55595e-05
3.58469e-05
3.55671e-05
3.45984e-05
3.32636e-05
2.79305e-05
2.27941e-05
1.81597e-05
1.40727e-05
1.09527e-05
8.42207e-06
7.18606e-06
6.94214e-06
7.52507e-06
8.79016e-06
1.02475e-05
1.20913e-05
1.35241e-05
1.48983e-05
1.66869e-05
1.63868e-05
1.66806e-05
1.67905e-05
1.68731e-05
1.69725e-05
1.70826e-05
1.7198e-05
1.73184e-05
1.74442e-05
1.75759e-05
1.77146e-05
1.78609e-05
1.80154e-05
1.81787e-05
1.83512e-05
1.85336e-05
1.87263e-05
1.89305e-05
1.91464e-05
1.93754e-05
1.96183e-05
1.98767e-05
2.01519e-05
2.04456e-05
2.07603e-05
2.10962e-05
2.14579e-05
2.18422e-05
2.22581e-05
2.26974e-05
2.3174e-05
2.3672e-05
2.4211e-05
2.47721e-05
2.53727e-05
2.59984e-05
2.66722e-05
2.73812e-05
2.81315e-05
2.89126e-05
2.97245e-05
3.05515e-05
3.13836e-05
3.22121e-05
3.29687e-05
3.36062e-05
3.40973e-05
3.43409e-05
3.40186e-05
3.31258e-05
3.16368e-05
2.9289e-05
2.44122e-05
2.00514e-05
1.61758e-05
1.28787e-05
1.01245e-05
7.77666e-06
6.25599e-06
5.51452e-06
5.34784e-06
5.74463e-06
6.75189e-06
7.8898e-06
9.59556e-06
1.11756e-05
1.25906e-05
1.42582e-05
1.55099e-05
1.55878e-05
1.58744e-05
1.59836e-05
1.60655e-05
1.61635e-05
1.62723e-05
1.63868e-05
1.65064e-05
1.66315e-05
1.67626e-05
1.69005e-05
1.70462e-05
1.72002e-05
1.73634e-05
1.75361e-05
1.77198e-05
1.79148e-05
1.81232e-05
1.83446e-05
1.85821e-05
1.88341e-05
1.91049e-05
1.93921e-05
1.97018e-05
2.0032e-05
2.03899e-05
2.07746e-05
2.1192e-05
2.16431e-05
2.21333e-05
2.26614e-05
2.32414e-05
2.38907e-05
2.4596e-05
2.53491e-05
2.61558e-05
2.70067e-05
2.79183e-05
2.88445e-05
2.98067e-05
3.07135e-05
3.15473e-05
3.22001e-05
3.2659e-05
3.27299e-05
3.23225e-05
3.13501e-05
2.98332e-05
2.82146e-05
2.37792e-05
1.983e-05
1.6249e-05
1.31589e-05
1.07864e-05
8.62748e-06
6.92583e-06
5.81501e-06
4.85943e-06
4.52651e-06
4.20169e-06
4.49165e-06
4.95558e-06
5.94561e-06
7.0855e-06
8.79376e-06
1.05814e-05
1.21592e-05
1.26716e-05
1.28152e-05
1.56109e-05
1.5874e-05
1.59769e-05
1.60554e-05
1.61478e-05
1.62497e-05
1.63573e-05
1.64704e-05
1.65893e-05
1.67146e-05
1.68466e-05
1.69867e-05
1.71346e-05
1.72916e-05
1.74571e-05
1.76334e-05
1.78191e-05
1.8018e-05
1.82282e-05
1.84553e-05
1.86965e-05
1.89587e-05
1.9238e-05
1.95416e-05
1.98666e-05
2.02207e-05
2.06026e-05
2.10198e-05
2.1475e-05
2.19778e-05
2.25216e-05
2.31106e-05
2.37451e-05
2.44389e-05
2.51934e-05
2.59985e-05
2.68299e-05
2.76464e-05
2.84076e-05
2.90264e-05
2.94485e-05
2.9511e-05
2.92609e-05
2.86518e-05
2.7637e-05
2.44759e-05
2.06875e-05
1.7381e-05
1.44261e-05
1.2001e-05
9.91276e-06
8.23075e-06
6.91081e-06
5.83517e-06
5.01315e-06
4.32145e-06
3.91117e-06
3.56996e-06
3.55835e-06
3.59696e-06
3.85568e-06
4.41449e-06
5.56883e-06
6.71371e-06
7.41906e-06
8.06793e-06
8.38927e-06
9.44038e-06
1.04945e-05
1.48551e-05
1.51597e-05
1.52844e-05
1.53789e-05
1.54878e-05
1.56074e-05
1.5733e-05
1.58641e-05
1.60012e-05
1.61459e-05
1.62987e-05
1.64616e-05
1.66348e-05
1.68201e-05
1.70173e-05
1.72298e-05
1.74567e-05
1.77016e-05
1.7963e-05
1.82453e-05
1.85477e-05
1.88766e-05
1.92317e-05
1.9622e-05
2.00572e-05
2.05433e-05
2.10792e-05
2.16577e-05
2.22733e-05
2.29256e-05
2.36308e-05
2.43503e-05
2.50531e-05
2.57071e-05
2.62898e-05
2.6767e-05
2.71052e-05
2.73172e-05
2.75213e-05
2.643e-05
2.36105e-05
2.07501e-05
1.80087e-05
1.54593e-05
1.31739e-05
1.1195e-05
9.53174e-06
8.19026e-06
7.07135e-06
6.19855e-06
5.39166e-06
4.71499e-06
4.15751e-06
3.66834e-06
3.33475e-06
3.10712e-06
2.93873e-06
2.82776e-06
2.81224e-06
2.81456e-06
2.85418e-06
2.80481e-06
2.56078e-06
2.33763e-06
2.49423e-06
2.95625e-06
3.72386e-06
4.37944e-06
5.77669e-06
1.73647e-05
1.76121e-05
1.77246e-05
1.7816e-05
1.79212e-05
1.80372e-05
1.81617e-05
1.82929e-05
1.84321e-05
1.85762e-05
1.87294e-05
1.88894e-05
1.90568e-05
1.92475e-05
1.94712e-05
1.96815e-05
1.99031e-05
2.01375e-05
2.04253e-05
2.07072e-05
2.09836e-05
2.12735e-05
2.15745e-05
2.19026e-05
2.21852e-05
2.25086e-05
2.277e-05
2.30579e-05
2.33147e-05
2.35686e-05
2.26497e-05
2.14705e-05
2.00912e-05
1.85942e-05
1.7131e-05
1.56057e-05
1.41027e-05
1.27196e-05
1.14639e-05
1.03166e-05
9.29928e-06
8.38223e-06
7.57814e-06
6.88981e-06
6.2486e-06
5.67154e-06
5.32511e-06
4.9097e-06
4.43981e-06
3.90607e-06
3.46608e-06
3.07604e-06
2.72324e-06
2.36899e-06
2.0471e-06
1.80083e-06
1.60641e-06
1.39891e-06
1.12006e-06
9.13196e-07
7.93771e-07
7.26118e-07
6.913e-07
7.73067e-07
1.04535e-06
2.10409e-06
3.21414e-06
3.36379e-06
2.9371e-06
9.35904e-06
9.26505e-06
9.15778e-06
9.04585e-06
8.93194e-06
8.77857e-06
8.66045e-06
8.54034e-06
8.45826e-06
8.35485e-06
8.24823e-06
8.09794e-06
7.97164e-06
7.84482e-06
7.77567e-06
7.65106e-06
7.5832e-06
7.46336e-06
7.39534e-06
7.30363e-06
7.18361e-06
7.0816e-06
6.99324e-06
6.88136e-06
6.75459e-06
6.64301e-06
6.54618e-06
6.45404e-06
6.39645e-06
6.34539e-06
6.3131e-06
6.29818e-06
6.30077e-06
6.28989e-06
6.27931e-06
6.24198e-06
6.20433e-06
6.1281e-06
6.03735e-06
5.87254e-06
5.6897e-06
5.51723e-06
5.38129e-06
5.13633e-06
4.80955e-06
4.36211e-06
3.84894e-06
3.38346e-06
2.92311e-06
2.42002e-06
1.89891e-06
1.40435e-06
9.69112e-07
6.48541e-07
4.53746e-07
3.39008e-07
2.74456e-07
2.46397e-07
2.30407e-07
2.20703e-07
1.99738e-07
2.03339e-07
2.47605e-07
3.30603e-07
4.87378e-07
7.15495e-07
8.38628e-07
8.07024e-07
6.32917e-07
3.73516e-06
3.84817e-06
3.96391e-06
4.08223e-06
4.20299e-06
4.32591e-06
4.45084e-06
4.57773e-06
4.70605e-06
4.83611e-06
4.96685e-06
5.09916e-06
5.23143e-06
5.36062e-06
5.44828e-06
5.53807e-06
5.62686e-06
5.71808e-06
5.80846e-06
5.90075e-06
5.99268e-06
6.08807e-06
6.17592e-06
6.28217e-06
6.36552e-06
6.46963e-06
6.55104e-06
6.5911e-06
6.79305e-06
6.8575e-06
6.88783e-06
7.02453e-06
7.06332e-06
7.01451e-06
6.92502e-06
6.82568e-06
6.71213e-06
6.57932e-06
6.37514e-06
6.05897e-06
5.6947e-06
5.28035e-06
4.81624e-06
4.30442e-06
3.75036e-06
3.16667e-06
2.55545e-06
1.97295e-06
1.37831e-06
8.13955e-07
3.8082e-07
1.36974e-07
4.72292e-08
3.13271e-08
3.45667e-08
4.05938e-08
4.48657e-08
4.70752e-08
4.80285e-08
4.88831e-08
4.9816e-08
4.96379e-08
4.66977e-08
4.13573e-08
3.49975e-08
2.84488e-08
2.12271e-08
1.42211e-08
8.31536e-09
7.1765e-05
7.08947e-05
6.94023e-05
6.97853e-05
6.96635e-05
6.99618e-05
7.03731e-05
7.1266e-05
7.09788e-05
6.92538e-05
6.90794e-05
6.87005e-05
6.77701e-05
6.82982e-05
6.92831e-05
7.17612e-05
6.89781e-05
6.83122e-05
6.95025e-05
6.97632e-05
6.70709e-05
6.71726e-05
6.90793e-05
6.833e-05
6.95379e-05
6.97903e-05
6.88815e-05
6.81806e-05
6.88757e-05
7.02873e-05
6.91941e-05
6.8897e-05
6.90524e-05
6.99886e-05
6.92128e-05
6.96712e-05
7.00826e-05
7.03125e-05
7.06279e-05
7.29055e-05
7.26789e-05
7.10913e-05
7.19054e-05
7.19422e-05
7.15713e-05
7.16461e-05
7.25436e-05
7.16561e-05
7.27028e-05
7.576e-05
7.72222e-05
7.77915e-05
7.69463e-05
7.43846e-05
7.11397e-05
7.08482e-05
7.125e-05
7.23802e-05
7.17167e-05
6.71535e-05
6.61136e-05
6.65242e-05
6.65243e-05
6.66798e-05
6.68411e-05
6.6686e-05
6.62245e-05
6.54341e-05
6.49615e-05
6.4835e-05
6.46533e-05
6.48536e-05
6.5404e-05
6.62441e-05
6.55694e-05
6.37888e-05
6.41397e-05
6.50404e-05
6.40167e-05
6.27873e-05
6.31336e-05
6.41548e-05
6.38638e-05
6.4702e-05
6.44711e-05
6.41885e-05
6.33563e-05
6.42929e-05
6.4834e-05
6.4125e-05
6.4111e-05
6.44809e-05
6.4843e-05
6.46444e-05
6.47987e-05
6.53119e-05
6.53461e-05
6.54156e-05
6.64197e-05
6.70319e-05
6.66928e-05
6.66271e-05
6.67519e-05
6.71602e-05
6.68088e-05
6.73558e-05
6.68167e-05
6.67454e-05
6.80308e-05
6.94629e-05
7.08351e-05
7.15584e-05
7.12447e-05
6.93518e-05
6.82738e-05
6.71584e-05
6.71567e-05
6.65413e-05
6.32665e-05
6.25205e-05
6.29684e-05
6.28157e-05
6.2704e-05
6.23982e-05
6.18996e-05
6.13588e-05
6.09709e-05
6.08522e-05
6.07875e-05
6.08626e-05
6.1171e-05
6.1285e-05
6.11151e-05
5.9982e-05
5.96727e-05
6.01163e-05
6.02071e-05
5.90331e-05
5.83868e-05
5.90418e-05
5.94422e-05
5.9524e-05
5.99746e-05
5.95755e-05
5.94581e-05
5.88944e-05
5.95628e-05
5.9875e-05
5.94163e-05
5.962e-05
5.9832e-05
5.99852e-05
6.00163e-05
6.01591e-05
6.05259e-05
6.07137e-05
6.08152e-05
6.12477e-05
6.19909e-05
6.22523e-05
6.20075e-05
6.19375e-05
6.23661e-05
6.23053e-05
6.25431e-05
6.24169e-05
6.21662e-05
6.23866e-05
6.30225e-05
6.39515e-05
6.48584e-05
6.55464e-05
6.54976e-05
6.50183e-05
6.42196e-05
6.38956e-05
6.26067e-05
5.99203e-05
5.90741e-05
5.92647e-05
5.8954e-05
5.86229e-05
5.82217e-05
5.7829e-05
5.75451e-05
5.7398e-05
5.73344e-05
5.73297e-05
5.73909e-05
5.73793e-05
5.70661e-05
5.64952e-05
5.59501e-05
5.60747e-05
5.61748e-05
5.56907e-05
5.48513e-05
5.47024e-05
5.52098e-05
5.53734e-05
5.55728e-05
5.5757e-05
5.53449e-05
5.52242e-05
5.48957e-05
5.53572e-05
5.55368e-05
5.52978e-05
5.55281e-05
5.56015e-05
5.56923e-05
5.57574e-05
5.59093e-05
5.61621e-05
5.63745e-05
5.6514e-05
5.67493e-05
5.73294e-05
5.78188e-05
5.77877e-05
5.76403e-05
5.78053e-05
5.7904e-05
5.80377e-05
5.80901e-05
5.79822e-05
5.78881e-05
5.79893e-05
5.83522e-05
5.89091e-05
5.95564e-05
6.00751e-05
6.0313e-05
6.02445e-05
6.03878e-05
5.92342e-05
5.63732e-05
5.5434e-05
5.55252e-05
5.51831e-05
5.48759e-05
5.4591e-05
5.43791e-05
5.42398e-05
5.41611e-05
5.40948e-05
5.40239e-05
5.3884e-05
5.35784e-05
5.31222e-05
5.26959e-05
5.25184e-05
5.25256e-05
5.22519e-05
5.16606e-05
5.12321e-05
5.13361e-05
5.16212e-05
5.16977e-05
5.18744e-05
5.18693e-05
5.1499e-05
5.1379e-05
5.11872e-05
5.1517e-05
5.16029e-05
5.14934e-05
5.1686e-05
5.17099e-05
5.17782e-05
5.18459e-05
5.19815e-05
5.21699e-05
5.23493e-05
5.24818e-05
5.26127e-05
5.29862e-05
5.34943e-05
5.37091e-05
5.36522e-05
5.36569e-05
5.3729e-05
5.38285e-05
5.39253e-05
5.39492e-05
5.38948e-05
5.38478e-05
5.39011e-05
5.40977e-05
5.44312e-05
5.48441e-05
5.5242e-05
5.55177e-05
5.60392e-05
5.53183e-05
5.28101e-05
5.19128e-05
5.20209e-05
5.17508e-05
5.15477e-05
5.13688e-05
5.12266e-05
5.11018e-05
5.09779e-05
5.08197e-05
5.06026e-05
5.0299e-05
4.99182e-05
4.95555e-05
4.93132e-05
4.91737e-05
4.89594e-05
4.85317e-05
4.8089e-05
4.79365e-05
4.80777e-05
4.82061e-05
4.82452e-05
4.83405e-05
4.82112e-05
4.7896e-05
4.7788e-05
4.76753e-05
4.79064e-05
4.79395e-05
4.78937e-05
4.80439e-05
4.8056e-05
4.81107e-05
4.81774e-05
4.82918e-05
4.84393e-05
4.85916e-05
4.87177e-05
4.8804e-05
4.90201e-05
4.94226e-05
4.97554e-05
4.98525e-05
4.98527e-05
4.98742e-05
4.99353e-05
5.00256e-05
5.01078e-05
5.0144e-05
5.01373e-05
5.01278e-05
5.01618e-05
5.02718e-05
5.04643e-05
5.0722e-05
5.0971e-05
5.15428e-05
5.10701e-05
4.9545e-05
4.87327e-05
4.88683e-05
4.86514e-05
4.84908e-05
4.83315e-05
4.81709e-05
4.79932e-05
4.77843e-05
4.75292e-05
4.7226e-05
4.68941e-05
4.65728e-05
4.63135e-05
4.61104e-05
4.58803e-05
4.55468e-05
4.5155e-05
4.48936e-05
4.48637e-05
4.49483e-05
4.49817e-05
4.49907e-05
4.49936e-05
4.47976e-05
4.45349e-05
4.44409e-05
4.43745e-05
4.4529e-05
4.45338e-05
4.45201e-05
4.46321e-05
4.46407e-05
4.46845e-05
4.47451e-05
4.48415e-05
4.49617e-05
4.50948e-05
4.52206e-05
4.53033e-05
4.54304e-05
4.57019e-05
4.60264e-05
4.62362e-05
4.63136e-05
4.63403e-05
4.63748e-05
4.64384e-05
4.6523e-05
4.66031e-05
4.66579e-05
4.66871e-05
4.67078e-05
4.67439e-05
4.68138e-05
4.69313e-05
4.70574e-05
4.75184e-05
4.70815e-05
4.65548e-05
4.58005e-05
4.59357e-05
4.57279e-05
4.55578e-05
4.53679e-05
4.5157e-05
4.49179e-05
4.46485e-05
4.4354e-05
4.40495e-05
4.37597e-05
4.35002e-05
4.32683e-05
4.30233e-05
4.27233e-05
4.2386e-05
4.20991e-05
4.19572e-05
4.19504e-05
4.19662e-05
4.19454e-05
4.19163e-05
4.18398e-05
4.16203e-05
4.14043e-05
4.13226e-05
4.12838e-05
4.13801e-05
4.13713e-05
4.13753e-05
4.14549e-05
4.14608e-05
4.14963e-05