/*--------------------------------*- C++ -*----------------------------------*\
| =========                 |                                                 |
| \\      /  F ield         | OpenFOAM: The Open Source CFD Toolbox           |
|  \\    /   O peration     | Version:  2312                                  |
|   \\  /    A nd           | Website:  www.openfoam.com                      |
|    \\/     M anipulation  |                                                 |
\*---------------------------------------------------------------------------*/
FoamFile
{
    version     2.0;
    format      ascii;
    arch        "LSB;label=32;scalar=64";
    class       volScalarField;
    location    "400";
    object      omega;
}
// * * * * * * * * * * * * * * * * * * * * * * * * * * * * * * * * * * * * * //

dimensions      [0 0 -1 0 0 0 0];

internalField   nonuniform List<scalar> 
76025
(
0.0280719
0.0280555
0.0280248
0.0280252
0.0280294
0.0280614
0.0280704
0.0280682
0.0280608
0.0280532
0.0280482
0.0280369
0.0280338
0.0280148
0.028016
0.0280152
0.0280331
0.0280495
0.0280738
0.028101
0.0281369
0.0281783
0.0282273
0.0282754
0.028357
0.0284016
0.0285138
0.0285794
0.0286884
0.0287744
0.0289067
0.0289746
0.0291267
0.0292242
0.0293607
0.0294823
0.029609
0.0297871
0.0299326
0.030084
0.030232
0.0303822
0.0305691
0.0307136
0.0308561
0.0309905
0.0311294
0.0312624
0.0314054
0.0315496
0.0317379
0.0319283
0.0322153
0.032496
0.0329919
0.0334568
0.0341118
0.0348428
0.0356746
0.0367029
0.037798
0.0388635
0.0409941
0.0422512
0.0449978
0.047715
0.0504285
0.0548083
0.058206
0.0284018
0.0283897
0.0283714
0.0283591
0.0283521
0.028364
0.0283868
0.0284126
0.028434
0.0284378
0.0284368
0.0284358
0.028434
0.0284288
0.0284311
0.0284298
0.0284431
0.0284623
0.028495
0.0285279
0.0285735
0.028619
0.0286784
0.0287345
0.0288118
0.0288782
0.0289658
0.0290481
0.0291452
0.029239
0.0293484
0.0294481
0.0295637
0.0296758
0.0297958
0.0299184
0.0300436
0.0301701
0.0302946
0.0304165
0.0305418
0.0306673
0.0307887
0.0309085
0.0310319
0.0311654
0.0313047
0.0314638
0.0316499
0.0318783
0.03214
0.0324656
0.0328433
0.0332869
0.033838
0.0344114
0.0352261
0.0359429
0.0370612
0.038071
0.0394897
0.0409196
0.0430767
0.0445168
0.0479751
0.0498931
0.0544195
0.0570207
0.0647363
0.0287214
0.02873
0.0287227
0.0287189
0.0287144
0.0287154
0.0287291
0.028753
0.0287839
0.0288146
0.028842
0.0288654
0.0288864
0.0289014
0.0289188
0.028933
0.0289517
0.0289717
0.0289996
0.0290305
0.0290707
0.0291141
0.0291678
0.0292248
0.0292923
0.0293621
0.0294392
0.0295188
0.0296064
0.0296957
0.0297921
0.0298894
0.0299917
0.0300961
0.0302057
0.0303177
0.0304334
0.0305504
0.0306702
0.0307895
0.0309136
0.031041
0.0311755
0.0313163
0.0314711
0.0316399
0.0318317
0.0320484
0.0323041
0.0325965
0.0329381
0.0333328
0.0337894
0.034319
0.0349416
0.0356325
0.0365111
0.0373638
0.038604
0.0396885
0.0413268
0.0427744
0.0450893
0.0467686
0.0502952
0.0525914
0.0574568
0.0605731
0.068753
0.0290717
0.0290972
0.0291131
0.0291249
0.0291323
0.0291377
0.0291467
0.029161
0.0291834
0.0292122
0.0292462
0.0292819
0.0293192
0.0293547
0.0293909
0.0294259
0.0294618
0.029497
0.0295347
0.0295734
0.0296168
0.0296632
0.0297155
0.0297719
0.0298347
0.0299013
0.0299738
0.0300494
0.030131
0.0302156
0.0303055
0.030398
0.0304955
0.0305959
0.0307022
0.030812
0.0309268
0.0310466
0.031172
0.0313015
0.031439
0.0315859
0.0317452
0.031918
0.0321085
0.032321
0.0325603
0.0328315
0.0331422
0.0334946
0.0339015
0.0343629
0.0348976
0.0355057
0.0362208
0.0369989
0.0379976
0.0389265
0.0403455
0.0414791
0.0433797
0.0449259
0.0475619
0.0493817
0.0534297
0.0559201
0.0612347
0.0646827
0.0738752
0.0295021
0.0295357
0.0295696
0.029603
0.0296334
0.0296586
0.0296806
0.0297003
0.0297212
0.0297447
0.0297728
0.0298049
0.0298415
0.0298806
0.0299226
0.0299661
0.0300117
0.030058
0.0301061
0.0301549
0.0302063
0.0302594
0.0303163
0.0303757
0.0304398
0.0305069
0.030579
0.0306542
0.0307346
0.0308184
0.0309077
0.0310004
0.0310991
0.0312019
0.0313117
0.0314269
0.0315487
0.0316784
0.0318165
0.0319622
0.0321195
0.0322901
0.0324772
0.0326824
0.0329092
0.0331632
0.0334471
0.033768
0.0341322
0.0345416
0.035016
0.0355439
0.0361636
0.0368555
0.0376642
0.0385544
0.0396538
0.040705
0.0423031
0.0435103
0.045724
0.0473783
0.0502738
0.0524251
0.0567633
0.0595498
0.0652069
0.0693804
0.0792208
0.0300172
0.0300427
0.0300759
0.0301164
0.0301615
0.0302072
0.0302518
0.0302935
0.0303326
0.0303695
0.030406
0.030443
0.0304818
0.0305226
0.030566
0.0306115
0.0306599
0.0307099
0.0307625
0.0308165
0.0308731
0.0309312
0.0309926
0.031056
0.0311234
0.0311933
0.031268
0.0313457
0.0314287
0.0315155
0.0316083
0.0317056
0.0318097
0.0319195
0.0320377
0.0321631
0.0322972
0.0324417
0.0325974
0.0327636
0.0329451
0.0331429
0.0333613
0.0336013
0.0338667
0.0341646
0.0344941
0.0348699
0.0352891
0.0357649
0.0363124
0.0369148
0.037635
0.0384072
0.0393369
0.0403323
0.041556
0.0427551
0.0445357
0.0458476
0.048439
0.0501265
0.0534904
0.0558696
0.0606635
0.0639072
0.0698563
0.0759925
0.08348
0.0306822
0.0306993
0.0307221
0.0307541
0.0307947
0.0308421
0.0308945
0.0309496
0.0310056
0.0310608
0.0311148
0.0311673
0.0312189
0.0312698
0.031321
0.0313726
0.0314255
0.0314793
0.0315351
0.0315921
0.0316515
0.0317126
0.0317768
0.0318432
0.0319135
0.0319867
0.0320647
0.0321465
0.032234
0.0323265
0.0324255
0.0325309
0.0326441
0.0327651
0.0328961
0.0330363
0.0331876
0.0333516
0.0335299
0.0337206
0.0339312
0.0341593
0.0344139
0.0346908
0.0349998
0.0353446
0.0357246
0.0361626
0.0366399
0.0371966
0.0378161
0.0385109
0.0393309
0.0401936
0.0412598
0.0423599
0.0437368
0.0451046
0.0470692
0.0485506
0.0515263
0.0532975
0.0572203
0.0597543
0.0653141
0.0686907
0.0764361
0.081172
0.0962343
0.0314361
0.0314569
0.0314782
0.0315046
0.0315373
0.031577
0.0316241
0.0316779
0.0317374
0.0318009
0.0318669
0.031934
0.0320013
0.0320682
0.0321347
0.0322005
0.0322662
0.0323315
0.0323974
0.0324636
0.0325312
0.0326
0.0326712
0.0327445
0.0328213
0.0329016
0.0329866
0.0330764
0.0331721
0.0332744
0.0333838
0.0335014
0.0336279
0.0337644
0.0339123
0.0340717
0.0342441
0.0344317
0.0346361
0.0348545
0.0350984
0.035359
0.0356551
0.0359704
0.0363309
0.0367244
0.0371649
0.0376699
0.0382132
0.0388625
0.0395528
0.0403622
0.0412728
0.0422546
0.0434584
0.0446864
0.0462368
0.047816
0.0499478
0.0517273
0.0550279
0.0570243
0.0615172
0.0644067
0.0706106
0.0745817
0.0831947
0.0897979
0.106254
0.0323608
0.0323909
0.0324186
0.0324481
0.0324796
0.0325144
0.0325538
0.032599
0.0326506
0.0327081
0.0327713
0.0328388
0.0329098
0.0329832
0.0330584
0.0331344
0.0332112
0.0332884
0.0333661
0.0334445
0.0335238
0.0336045
0.033687
0.0337721
0.0338601
0.0339523
0.0340488
0.0341514
0.0342597
0.0343762
0.0345
0.0346344
0.0347778
0.0349341
0.0351023
0.035285
0.0354818
0.0356973
0.0359308
0.0361816
0.0364625
0.0367603
0.0371044
0.0374617
0.0378847
0.0383283
0.0388452
0.0394168
0.040043
0.0407878
0.0415591
0.0424992
0.0434995
0.044634
0.0459782
0.0473672
0.0491259
0.050946
0.0532675
0.0554646
0.0590627
0.0613287
0.0666579
0.0699233
0.0769347
0.0816075
0.0919373
0.10038
0.121115
0.0333997
0.0334391
0.0334765
0.0335153
0.0335546
0.0335944
0.033636
0.0336804
0.0337288
0.0337821
0.0338408
0.0339048
0.0339739
0.0340475
0.0341252
0.0342063
0.0342902
0.0343765
0.0344648
0.0345554
0.0346477
0.0347428
0.0348398
0.0349407
0.0350444
0.0351536
0.0352668
0.0353876
0.0355138
0.03565
0.0357933
0.0359496
0.0361145
0.0362959
0.0364883
0.0367001
0.0369245
0.0371748
0.0374404
0.0377321
0.0380536
0.0383978
0.0387957
0.0392034
0.0396993
0.0401975
0.0408076
0.0414444
0.0421754
0.0430122
0.0438866
0.0449643
0.0460695
0.0473895
0.0488848
0.0504826
0.0524916
0.0545795
0.0571562
0.0598937
0.063712
0.0665588
0.0727572
0.0764918
0.0845759
0.0903725
0.103202
0.116966
0.134372
0.0347094
0.0347546
0.0347982
0.034844
0.0348904
0.0349369
0.0349838
0.0350317
0.0350814
0.0351338
0.0351897
0.0352498
0.0353145
0.0353841
0.0354586
0.035538
0.0356218
0.0357104
0.0358027
0.0358997
0.0359998
0.036105
0.0362133
0.0363276
0.0364455
0.036571
0.036701
0.0368406
0.0369862
0.0371442
0.0373094
0.037491
0.0376805
0.037892
0.0381116
0.0383594
0.0386144
0.0389088
0.0392083
0.0395532
0.0399163
0.0403208
0.0407736
0.0412448
0.041818
0.0423784
0.0430929
0.0437951
0.0446517
0.0455776
0.0465854
0.0478077
0.0490534
0.0505912
0.0522718
0.0541314
0.0564568
0.0588158
0.0618222
0.0651173
0.0691943
0.0730427
0.0799929
0.0843944
0.0941647
0.101703
0.120838
0.134223
0.185259
0.0361903
0.0362446
0.0362966
0.0363512
0.0364068
0.0364626
0.0365189
0.0365759
0.0366339
0.0366936
0.0367553
0.0368199
0.0368878
0.0369598
0.0370361
0.0371174
0.0372035
0.0372954
0.037392
0.0374952
0.037603
0.037718
0.0378378
0.0379659
0.0380993
0.0382425
0.0383919
0.0385532
0.038722
0.0389056
0.0390974
0.0393092
0.0395281
0.0397759
0.0400268
0.0403186
0.0406068
0.0409555
0.0412886
0.0417007
0.0421015
0.0425837
0.0430858
0.0436384
0.0442867
0.0449232
0.0457519
0.0465264
0.047537
0.0485582
0.0497437
0.0511307
0.052564
0.0543679
0.056268
0.0584754
0.0611588
0.0638411
0.0675168
0.0712498
0.0759111
0.0810622
0.0886499
0.0942747
0.106723
0.118731
0.142664
0.164055
0.217208
0.0380385
0.0381029
0.0381642
0.038228
0.0382926
0.0383574
0.0384225
0.0384882
0.0385547
0.0386226
0.038692
0.0387637
0.0388377
0.0389153
0.0389961
0.0390819
0.0391719
0.0392681
0.0393693
0.0394779
0.0395921
0.0397148
0.0398439
0.0399828
0.0401292
0.0402867
0.0404533
0.0406331
0.0408233
0.0410301
0.0412479
0.0414885
0.0417374
0.0420217
0.0423048
0.0426437
0.0429653
0.0433756
0.0437399
0.0442334
0.0446644
0.0452472
0.0457867
0.0464513
0.0471653
0.0479088
0.0488605
0.0497262
0.0509343
0.0520527
0.0534917
0.0550463
0.0567465
0.0588584
0.0610248
0.0637153
0.0667344
0.0699937
0.0744194
0.0785689
0.0844326
0.0908826
0.0994257
0.107602
0.125528
0.142898
0.173028
0.205038
0.274594
0.0401264
0.0402026
0.040276
0.0403529
0.0404311
0.0405096
0.0405887
0.0406685
0.0407493
0.0408314
0.0409149
0.0410005
0.041088
0.0411786
0.0412721
0.0413699
0.0414718
0.0415794
0.0416924
0.0418127
0.0419398
0.0420755
0.0422197
0.0423739
0.0425387
0.0427149
0.0429039
0.0431061
0.0433236
0.043557
0.0438072
0.0440793
0.0443657
0.0446884
0.0450116
0.0454003
0.0457624
0.0462396
0.046639
0.0472277
0.0476848
0.0483981
0.0489586
0.0497881
0.0505401
0.0514636
0.0525164
0.0535423
0.0549698
0.0562121
0.0580036
0.0597016
0.0618311
0.0642252
0.0668312
0.0700689
0.073493
0.0777
0.0826637
0.08779
0.0952491
0.10327
0.113763
0.127858
0.153903
0.173818
0.227781
0.270764
0.448069
0.0427608
0.0428428
0.0429228
0.0430077
0.0430952
0.0431841
0.0432742
0.0433659
0.0434592
0.0435545
0.0436518
0.0437515
0.0438537
0.0439591
0.0440676
0.0441803
0.0442973
0.0444195
0.0445478
0.0446824
0.0448252
0.0449756
0.0451368
0.0453067
0.0454906
0.0456841
0.0458959
0.0461176
0.046363
0.0466185
0.0469037
0.0472012
0.047531
0.0478843
0.048259
0.0486888
0.0491088
0.0496445
0.0501032
0.0507844
0.0512914
0.0521501
0.0527411
0.0537891
0.0545534
0.0557704
0.0568537
0.058209
0.0597737
0.0613066
0.0634456
0.0653649
0.0680736
0.0707134
0.0740736
0.077733
0.0820112
0.0871492
0.0928367
0.0998076
0.109348
0.11986
0.135561
0.160789
0.190128
0.228806
0.315462
0.416096
0.6001
0.0458159
0.0459068
0.0459962
0.0460923
0.0461924
0.046295
0.0463999
0.0465074
0.0466174
0.0467302
0.0468459
0.0469646
0.0470868
0.0472123
0.0473422
0.0474761
0.0476157
0.04776
0.0479119
0.0480695
0.0482372
0.0484115
0.0485993
0.0487942
0.0490076
0.0492272
0.0494732
0.0497221
0.0500089
0.0502922
0.0506294
0.0509548
0.0513513
0.0517315
0.0521914
0.0526488
0.0531758
0.0537412
0.0543309
0.0550558
0.0557093
0.0566507
0.0573844
0.0586002
0.0594702
0.0609972
0.0621254
0.0639627
0.065553
0.0676848
0.0699789
0.0724872
0.0756558
0.078821
0.0830307
0.0871989
0.0928533
0.0987356
0.106294
0.116176
0.128914
0.144747
0.173281
0.205396
0.252278
0.335026
0.462736
0.59571
0.708493
0.0497268
0.049823
0.0499174
0.0500199
0.0501276
0.0502391
0.0503542
0.0504731
0.050596
0.0507228
0.050854
0.0509891
0.0511292
0.0512734
0.0514235
0.0515779
0.0517396
0.0519062
0.052082
0.0522633
0.0524568
0.0526562
0.0528725
0.0530938
0.0533399
0.0535871
0.0538721
0.054149
0.054485
0.0547956
0.0551967
0.0555459
0.0560289
0.0564237
0.0570039
0.0574611
0.0581563
0.0586977
0.0595249
0.0601976
0.0611708
0.0620421
0.0631774
0.0643432
0.0656637
0.0672429
0.0687937
0.070912
0.0728078
0.0755564
0.0780431
0.0814795
0.0849039
0.0891916
0.0939605
0.0994534
0.106573
0.114043
0.125834
0.139805
0.158701
0.189187
0.228446
0.280731
0.372684
0.502771
0.6449
0.752895
0.816215
0.0543603
0.0544721
0.0545821
0.0547014
0.0548271
0.0549573
0.0550923
0.0552318
0.0553767
0.0555263
0.0556818
0.0558421
0.0560088
0.0561806
0.0563596
0.0565443
0.0567374
0.0569367
0.0571465
0.0573627
0.0575931
0.0578293
0.058086
0.0583454
0.0586364
0.0589226
0.0592592
0.0595755
0.0599727
0.0603224
0.0608003
0.0611858
0.061771
0.0621924
0.0629195
0.0633836
0.0642921
0.064808
0.0659457
0.0665472
0.0679542
0.0687034
0.0704251
0.0714125
0.0734984
0.0748597
0.0773482
0.0792957
0.0822178
0.0850311
0.0884901
0.092435
0.0967641
0.102166
0.10799
0.115976
0.124862
0.137961
0.155417
0.177218
0.212906
0.259515
0.321953
0.422726
0.561023
0.703553
0.814905
0.87374
0.883489
0.0603661
0.0604849
0.0606014
0.0607285
0.0608631
0.0610031
0.061149
0.0613005
0.0614585
0.0616226
0.0617938
0.0619715
0.0621568
0.0623492
0.06255
0.0627589
0.0629775
0.063205
0.0634449
0.0636939
0.0639599
0.0642337
0.0645322
0.0648351
0.0651749
0.0655122
0.0659049
0.0662824
0.066744
0.067167
0.0677212
0.0681919
0.0688727
0.0693864
0.0702466
0.0708009
0.0718956
0.0725026
0.0738853
0.0745977
0.0762932
0.0772189
0.0792656
0.0805121
0.0830023
0.0846904
0.0877576
0.0900445
0.0938412
0.0970043
0.101715
0.106175
0.112407
0.118823
0.128463
0.139033
0.155585
0.176391
0.204699
0.246961
0.303807
0.380258
0.491154
0.637787
0.778928
0.88855
0.936843
0.943779
0.943044
0.0677097
0.0678584
0.0680054
0.0681656
0.0683353
0.0685121
0.068696
0.0688872
0.0690857
0.069292
0.0695058
0.0697278
0.0699575
0.0701959
0.0704426
0.0706989
0.0709648
0.0712412
0.0715296
0.0718292
0.0721448
0.0724729
0.0728215
0.0731856
0.073574
0.0739855
0.0744216
0.0748943
0.0753911
0.0759378
0.0765194
0.0771454
0.0778536
0.0785541
0.079461
0.0802235
0.0814035
0.0822524
0.0837537
0.0847976
0.0865918
0.088074
0.0900731
0.0922843
0.0944954
0.097608
0.100273
0.10436
0.107871
0.113224
0.118102
0.125699
0.13321
0.14561
0.159303
0.1809
0.207829
0.244723
0.298213
0.368225
0.460581
0.586318
0.735202
0.872546
0.975998
1.01244
1.01831
1.01946
1.00819
0.077301
0.0774512
0.0775999
0.0777644
0.0779404
0.0781258
0.0783201
0.0785242
0.0787376
0.0789615
0.0791952
0.0794401
0.0796954
0.0799628
0.0802414
0.0805337
0.0808385
0.0811591
0.0814936
0.0818479
0.082216
0.0826127
0.0830173
0.0834707
0.0839125
0.0844443
0.0849226
0.0855602
0.086079
0.086848
0.0874277
0.08834
0.0890319
0.0900843
0.0909799
0.092152
0.093361
0.0946752
0.0962527
0.09786
0.0997368
0.101996
0.104001
0.107317
0.109502
0.113993
0.116977
0.122546
0.127424
0.134675
0.143132
0.15446
0.170179
0.190514
0.219272
0.256614
0.306204
0.375436
0.462075
0.573619
0.709998
0.861575
0.985118
1.0755
1.10393
1.10535
1.10574
1.10419
1.06152
0.0895598
0.0897755
0.0899906
0.0902257
0.0904754
0.0907373
0.0910104
0.0912953
0.0915914
0.0918993
0.0922182
0.0925489
0.0928907
0.0932446
0.09361
0.0939883
0.0943797
0.0947855
0.095206
0.0956451
0.0960982
0.0965819
0.097068
0.0976174
0.0981319
0.0987808
0.0993144
0.100108
0.100654
0.101638
0.10221
0.103417
0.104066
0.10551
0.106333
0.107989
0.109146
0.110998
0.112649
0.114793
0.117003
0.119764
0.122526
0.126287
0.130031
0.134939
0.14096
0.147593
0.15791
0.169429
0.187138
0.210006
0.240231
0.282554
0.334578
0.404514
0.492649
0.599682
0.727693
0.873971
1.01188
1.12987
1.1887
1.20754
1.21264
1.21382
1.21245
1.19153
1.1117
0.105588
0.105779
0.105974
0.106194
0.106436
0.106696
0.106973
0.107267
0.107579
0.107909
0.108256
0.10862
0.109004
0.109403
0.109826
0.11026
0.110727
0.111196
0.111717
0.112223
0.112809
0.113361
0.114017
0.114638
0.115362
0.116091
0.116872
0.117763
0.118589
0.119706
0.120577
0.121993
0.122932
0.124718
0.125798
0.127977
0.129402
0.131886
0.13402
0.136779
0.139989
0.143425
0.147964
0.15311
0.159814
0.168211
0.179469
0.194372
0.215065
0.242973
0.279317
0.327918
0.389159
0.467116
0.560544
0.672869
0.796997
0.937666
1.08024
1.20306
1.29735
1.33993
1.35626
1.36431
1.3648
1.344
1.32125
1.25858
1.19617
0.127626
0.128003
0.128369
0.128756
0.129159
0.129578
0.130014
0.130468
0.13094
0.131429
0.13194
0.132463
0.133014
0.133567
0.134164
0.134741
0.135395
0.135985
0.136714
0.137309
0.138131
0.138729
0.139661
0.140277
0.141329
0.141992
0.143176
0.143923
0.145267
0.146144
0.147685
0.148796
0.150516
0.152068
0.153901
0.156216
0.158288
0.161545
0.164587
0.168891
0.174183
0.180474
0.189486
0.20063
0.215992
0.236484
0.264171
0.301732
0.350014
0.411788
0.487491
0.580775
0.688439
0.810968
0.940877
1.0779
1.21629
1.3432
1.44379
1.50855
1.53909
1.55506
1.55936
1.54135
1.4956
1.44128
1.3885
1.31698
1.29118
0.157478
0.157287
0.157345
0.157569
0.157891
0.158276
0.158707
0.159177
0.159682
0.160218
0.16079
0.161383
0.162021
0.162665
0.163377
0.164063
0.164867
0.165588
0.166503
0.167258
0.168306
0.169111
0.170305
0.171199
0.172551
0.173586
0.175139
0.176346
0.178229
0.17959
0.182003
0.183573
0.186695
0.1889
0.192827
0.196665
0.201745
0.208612
0.216531
0.227872
0.241963
0.260707
0.285824
0.318343
0.361243
0.41677
0.48711
0.572561
0.672714
0.789101
0.917196
1.05553
1.1956
1.3352
1.46809
1.59018
1.69061
1.75851
1.79272
1.82516
1.83248
1.79577
1.7249
1.64898
1.58021
1.49444
1.42497
1.32366
1.2727
0.20154
0.202023
0.202545
0.203145
0.203812
0.204536
0.205316
0.206147
0.207035
0.207972
0.208969
0.210011
0.211118
0.21227
0.213492
0.214762
0.216107
0.217516
0.218994
0.220589
0.22221
0.224065
0.225835
0.228073
0.229998
0.232747
0.234886
0.238265
0.240844
0.244792
0.248463
0.253888
0.260245
0.268898
0.280081
0.294526
0.312911
0.337096
0.366798
0.405421
0.453
0.512847
0.586172
0.675314
0.78122
0.903754
1.0407
1.18701
1.33924
1.49433
1.64504
1.78424
1.91112
2.02616
2.11173
2.1685
2.20883
2.22493
2.2044
2.13008
2.02433
1.92263
1.81135
1.67719
1.53012
1.38936
1.26223
1.15943
0.954308
0.315312
0.317415
0.319614
0.321924
0.324367
0.326924
0.329624
0.332435
0.335401
0.338477
0.341734
0.345103
0.348689
0.352394
0.356343
0.360434
0.364801
0.369372
0.374225
0.379425
0.384863
0.39083
0.397129
0.404115
0.411351
0.419872
0.429354
0.439617
0.452594
0.469849
0.491611
0.518478
0.552617
0.595528
0.64779
0.709974
0.782999
0.867101
0.963666
1.07406
1.19948
1.33906
1.4926
1.65821
1.83139
2.00607
2.17629
2.33675
2.48369
2.61603
2.72373
2.80469
2.85849
2.89909
2.88961
2.82898
2.72085
2.5756
2.41285
2.25215
2.05353
1.84279
1.63304
1.43915
1.2114
0.920955
0.73839
0.704569
0.667735
1.15059
1.16498
1.17975
1.19487
1.2104
1.22625
1.24245
1.25895
1.27574
1.29284
1.31022
1.32798
1.34605
1.36448
1.38325
1.40247
1.42206
1.44215
1.4628
1.48414
1.50617
1.52869
1.55441
1.57746
1.60464
1.64515
1.69788
1.76498
1.84396
1.93275
2.03295
2.14313
2.26007
2.38265
2.51117
2.64552
2.78496
2.93013
3.08591
3.25269
3.42385
3.59396
3.75962
3.91425
4.05502
4.17324
4.26862
4.32792
4.38894
4.39861
4.37868
4.30644
4.1538
3.95163
3.70339
3.40722
3.06654
2.67931
2.28981
1.93998
1.71025
1.48355
1.23699
1.15237
1.08711
1.01342
0.951908
0.936179
0.940878
8.31115
8.30866
8.30554
8.30177
8.29733
8.29219
8.28632
8.2797
8.27228
8.26407
8.25498
8.2451
8.23427
8.22264
8.20997
8.19652
8.18193
8.16658
8.15003
8.13265
8.11421
8.09474
8.07403
8.05355
8.02941
8.00691
7.97768
7.95129
7.92386
7.88789
7.86307
7.829
7.78469
7.73252
7.67778
7.62028
7.55971
7.49578
7.42821
7.35672
7.28127
7.20199
7.1192
7.03347
6.94577
6.85709
6.76944
6.68553
6.60124
6.52342
6.45869
6.40851
6.36839
6.33294
6.29916
6.26623
6.23398
6.20246
6.17177
6.14202
6.11329
6.08549
6.05869
6.03302
6.00863
5.98561
5.96409
5.94418
5.92619
0.0288633
0.0288653
0.028872
0.028856
0.0288462
0.028817
0.0287985
0.0287809
0.02878
0.0287755
0.0287661
0.0287773
0.0287878
0.0287955
0.0287229
0.0286856
0.0286885
0.0286963
0.0286825
0.0286179
0.0286642
0.0286963
0.0286353
0.0286135
0.0285694
0.0285139
0.0285357
0.0285469
0.0285609
0.0285259
0.0285146
0.0285084
0.02852
0.0284661
0.0284518
0.0284187
0.0284173
0.028395
0.0283592
0.0283451
0.0283148
0.0283263
0.0283086
0.0282694
0.0282652
0.028236
0.028204
0.028185
0.0281531
0.028102
0.0280665
0.0280691
0.028089
0.0281198
0.0281546
0.028156
0.0281446
0.0281189
0.0280928
0.0291583
0.0291451
0.0291313
0.0291143
0.0290943
0.0290764
0.0290695
0.0290663
0.029068
0.0290679
0.0290689
0.0290746
0.0290603
0.0290037
0.0289595
0.0289555
0.02897
0.0289629
0.0289064
0.0288898
0.0289275
0.0289312
0.0288671
0.0288544
0.0287862
0.0287493
0.0287671
0.028783
0.0287844
0.0287439
0.0287374
0.0287333
0.0287383
0.0286919
0.0286757
0.0286472
0.0286356
0.0286216
0.0285976
0.0285697
0.0285319
0.0285374
0.0285314
0.0285135
0.0284918
0.0284746
0.0284473
0.0284335
0.0284175
0.0283885
0.0283446
0.028298
0.0282942
0.0283052
0.0283433
0.0283741
0.0283962
0.0284059
0.0284066
0.0294708
0.0294536
0.0294393
0.0294309
0.0294215
0.0294193
0.0294221
0.0294255
0.0294308
0.0294333
0.0294311
0.0293942
0.0293501
0.0293023
0.0292858
0.0292864
0.0292833
0.0292468
0.029212
0.0292312
0.0292517
0.0292349
0.0291609
0.0291329
0.0290562
0.0290379
0.029057
0.0290761
0.0290615
0.0290223
0.0290197
0.0290132
0.029011
0.0289715
0.0289513
0.0289272
0.0289074
0.0288935
0.0288784
0.0288561
0.0288125
0.0288052
0.0288092
0.0288025
0.0287891
0.0287748
0.0287539
0.0287393
0.0287313
0.0287191
0.0286972
0.0286604
0.0286178
0.0286026
0.0286093
0.0286355
0.0286668
0.0286874
0.0287027
0.0298941
0.0298837
0.0298754
0.0298749
0.0298706
0.0298751
0.0298798
0.0298845
0.0298675
0.0298393
0.0297952
0.0297454
0.0297062
0.0296817
0.0296809
0.0296796
0.0296746
0.0296185
0.0296115
0.0296224
0.0296221
0.0295744
0.0294959
0.0294693
0.0293961
0.0293905
0.0294016
0.0294167
0.0293941
0.0293499
0.0293487
0.0293388
0.0293341
0.0293016
0.0292792
0.0292581
0.0292367
0.0292191
0.0292053
0.0291885
0.0291566
0.0291213
0.0291209
0.0291258
0.0291194
0.0291109
0.0290987
0.0290844
0.0290767
0.0290729
0.0290655
0.0290495
0.0290225
0.028988
0.0289748
0.0289768
0.0289952
0.0290158
0.029038
0.0304299
0.0304259
0.0304148
0.0304126
0.0303999
0.0303879
0.0303676
0.0303389
0.0303008
0.0302558
0.030217
0.0301886
0.030177
0.0301727
0.0301685
0.0301531
0.0300905
0.0300536
0.0300567
0.0300645
0.0300632
0.02999
0.0299117
0.0298657
0.0298
0.0298023
0.0298138
0.0298296
0.0297916
0.0297522
0.0297516
0.0297382
0.0297298
0.0297012
0.0296758
0.0296542
0.0296335
0.0296148
0.0296011
0.0295887
0.0295671
0.0295354
0.0295187
0.0295206
0.0295288
0.0295291
0.0295253
0.0295184
0.0295153
0.0295174
0.0295177
0.0295166
0.0295051
0.0294816
0.0294558
0.029446
0.0294461
0.0294535
0.029469
0.0310344
0.0310324
0.0310125
0.0309988
0.0309734
0.0309475
0.0309115
0.0308766
0.0308371
0.0308082
0.030785
0.0307742
0.0307613
0.0307426
0.0307003
0.0306501
0.0306096
0.0306088
0.0306129
0.0306139
0.030558
0.0304563
0.0303885
0.0303417
0.0302912
0.0302999
0.0303075
0.0303094
0.0302661
0.030222
0.0302181
0.0301999
0.0301912
0.0301672
0.0301439
0.0301233
0.0301037
0.0300856
0.0300718
0.0300613
0.0300443
0.0300198
0.0299925
0.0299867
0.0299868
0.0299911
0.0299957
0.0300055
0.030006
0.0299969
0.0300113
0.0300029
0.0300203
0.0300217
0.0300171
0.0300021
0.0299919
0.0299877
0.0299931
0.0317624
0.0317341
0.0316989
0.0316703
0.0316334
0.0315979
0.031559
0.031527
0.0314991
0.0314789
0.0314612
0.0314424
0.0314158
0.0313741
0.0313259
0.0312886
0.0312653
0.0312624
0.0312378
0.0312001
0.0311243
0.0310417
0.0309716
0.0309156
0.0308737
0.0308807
0.0308814
0.030888
0.0308284
0.0307914
0.0307874
0.0307679
0.030756
0.0307317
0.0307074
0.030686
0.0306665
0.0306491
0.0306361
0.0306286
0.0306182
0.0306004
0.0305795
0.0305684
0.0305626
0.0305698
0.0305806
0.0305909
0.030597
0.0305994
0.0306082
0.0306135
0.0306257
0.0306351
0.0306441
0.0306464
0.030653
0.0306529
0.0306598
0.0325993
0.0325592
0.0325155
0.0324824
0.0324431
0.0324099
0.0323769
0.0323514
0.0323284
0.0323058
0.0322771
0.0322402
0.0321889
0.0321293
0.0320757
0.0320434
0.0320301
0.0320224
0.0319907
0.0319305
0.0318327
0.0317236
0.0316549
0.0316085
0.0315739
0.0315829
0.0315901
0.0315695
0.0315057
0.031464
0.0314529
0.0314259
0.0314139
0.0313938
0.0313733
0.0313547
0.0313377
0.031322
0.0313098
0.0313037
0.0312986
0.031287
0.0312694
0.0312549
0.0312475
0.0312407
0.0312468
0.0312582
0.0312691
0.0312786
0.0312894
0.0313002
0.0313146
0.0313288
0.0313471
0.03136
0.0313799
0.0313895
0.0314046
0.0335295
0.0334981
0.0334632
0.0334363
0.0334018
0.0333742
0.0333421
0.033315
0.0332833
0.0332401
0.0331894
0.0331254
0.0330655
0.0330125
0.0329837
0.0329739
0.0329524
0.0329177
0.0328287
0.0327316
0.0326168
0.0325368
0.0324783
0.0324267
0.0324068
0.0324097
0.0323943
0.0323784
0.0323032
0.032269
0.0322586
0.0322348
0.0322203
0.0321982
0.0321756
0.0321558
0.0321386
0.0321236
0.0321127
0.0321088
0.0321065
0.0321037
0.0320963
0.0320878
0.0320745
0.0320729
0.0320861
0.0321057
0.0321261
0.0321453
0.0321632
0.0321792
0.0321972
0.0322135
0.0322359
0.032253
0.03228
0.032296
0.0323186
0.0347618
0.0347175
0.0346717
0.0346362
0.0345947
0.0345576
0.034512
0.0344678
0.0344052
0.0343416
0.034269
0.0342069
0.0341524
0.0341093
0.0340815
0.0340424
0.0339949
0.0339175
0.033827
0.0337333
0.0336315
0.0335407
0.0334753
0.0334353
0.0334139
0.0334074
0.033404
0.0333537
0.0332736
0.0332342
0.0332125
0.0331763
0.0331613
0.0331441
0.0331274
0.0331127
0.0330999
0.0330888
0.0330799
0.0330739
0.0330858
0.0330886
0.0330874
0.0330827
0.0330748
0.0330543
0.0330502
0.0330653
0.0330893
0.0331167
0.0331446
0.0331699
0.0331963
0.0332184
0.0332464
0.0332673
0.0332998
0.03332
0.0333484
0.0361202
0.0360753
0.0360273
0.0359833
0.0359278
0.0358691
0.0358052
0.0357284
0.0356561
0.0355799
0.0355182
0.0354653
0.0354279
0.0354003
0.0353717
0.0353305
0.0352535
0.0351555
0.0350321
0.0349068
0.0347817
0.0347077
0.0346501
0.0346063
0.0345946
0.0345986
0.0345427
0.0344945
0.0344116
0.0343793
0.0343601
0.0343345
0.0343186
0.0342976
0.0342772
0.03426
0.0342466
0.0342357
0.0342303
0.0342166
0.0342222
0.0342347
0.0342459
0.0342543
0.0342587
0.0342579
0.0342638
0.0342823
0.0343107
0.0343453
0.0343836
0.0344202
0.0344586
0.0344905
0.034528
0.0345549
0.0345942
0.0346178
0.0346508
0.0377673
0.0376944
0.0376171
0.0375526
0.0374731
0.0374092
0.0373299
0.0372725
0.0372119
0.037172
0.0371335
0.0371058
0.0370696
0.0370148
0.0369396
0.0368182
0.0366836
0.0365476
0.0364208
0.0363128
0.0362292
0.0361598
0.0360981
0.0360739
0.036057
0.0360125
0.0359736
0.0359024
0.0358136
0.0357743
0.0357392
0.0356935
0.0356762
0.0356621
0.0356508
0.0356419
0.0356357
0.0356346
0.0356275
0.0356278
0.035623
0.0356331
0.0356459
0.0356581
0.0356666
0.0356713
0.0356775
0.0356911
0.0357143
0.0357456
0.0357854
0.0358266
0.0358738
0.0359149
0.035964
0.0359997
0.0360498
0.0360797
0.0361208
0.0396664
0.0395982
0.0395325
0.0394773
0.0394174
0.0393659
0.0393082
0.0392648
0.0392118
0.0391603
0.0390953
0.0390163
0.038913
0.0387992
0.0386678
0.0385391
0.0384304
0.0383163
0.038202
0.038085
0.0379669
0.0378845
0.0378243
0.0377782
0.0377408
0.0377143
0.0376259
0.037546
0.037458
0.0374255
0.037396
0.0373713
0.0373556
0.0373357
0.0373173
0.0373045
0.0372974
0.0372827
0.0373057
0.037298
0.0372795
0.0372914
0.0373185
0.0373527
0.0373865
0.037417
0.0374441
0.0374713
0.0375019
0.0375361
0.0375778
0.0376203
0.0376718
0.0377167
0.0377733
0.0378144
0.0378734
0.0379082
0.0379569
0.0421468
0.042066
0.0419774
0.0419132
0.0418323
0.0417681
0.0416886
0.041619
0.0415255
0.0414338
0.0413239
0.0412067
0.0410889
0.040968
0.0408472
0.0407203
0.0405731
0.0404087
0.0402586
0.040119
0.040035
0.039971
0.0399133
0.0398904
0.0398532
0.0397663
0.0396841
0.0395948
0.0395066
0.0394643
0.0394124
0.039358
0.0393406
0.0393316
0.0393287
0.039327
0.039326
0.0393439
0.03932
0.039379
0.0393705
0.0393578
0.0393741
0.0394026
0.0394384
0.0394757
0.0395097
0.0395405
0.0395718
0.0396033
0.0396421
0.0396804
0.0397305
0.0397734
0.0398327
0.0398743
0.0399396
0.0399764
0.040032
0.045064
0.0449717
0.0448959
0.0448221
0.0447421
0.044662
0.0445695
0.0444737
0.0443572
0.044245
0.0441056
0.0439694
0.0438165
0.0436622
0.043484
0.0433078
0.0431231
0.0429814
0.0428514
0.0427583
0.0426665
0.0425736
0.0425088
0.0424238
0.0423289
0.0422451
0.0421226
0.042021
0.0419268
0.041891
0.041851
0.0418299
0.0418179
0.0417998
0.0417818
0.0417799
0.0417653
0.0417615
0.0417907
0.0417781
0.0418642
0.0418235
0.0418278
0.0418735
0.041922
0.0419748
0.0420331
0.042092
0.0421503
0.0422025
0.0422569
0.042303
0.0423589
0.0424016
0.0424628
0.042501
0.0425682
0.0426009
0.0426584
0.0486467
0.0485262
0.0484186
0.0483084
0.0481949
0.0480726
0.0479467
0.0478024
0.0476509
0.0474805
0.0473015
0.0471144
0.0469409
0.046746
0.0465843
0.0464048
0.0462601
0.0461152
0.0459795
0.045846
0.0457145
0.0456263
0.0455331
0.0454673
0.045395
0.0452611
0.0451567
0.0450492
0.0449683
0.0449196
0.0448451
0.0447851
0.0447725
0.0447707
0.044787
0.0447791
0.0448373
0.044815
0.044844
0.0448325
0.0448645
0.0449709
0.0449309
0.0449028
0.0449554
0.0450279
0.0450872
0.0451371
0.0451875
0.0452341
0.0452879
0.0453332
0.0453923
0.0454347
0.0455002
0.045537
0.0456095
0.0456399
0.0457023
0.0529658
0.0528528
0.0527195
0.0525976
0.0524515
0.0523042
0.0521416
0.0519692
0.0517851
0.0516044
0.0514083
0.0512374
0.0510384
0.0508629
0.0506673
0.0504715
0.0502914
0.0501115
0.0499459
0.0497903
0.0496774
0.0495744
0.0494737
0.0493373
0.0491485
0.0490078
0.048841
0.0487155
0.0486152
0.0485727
0.0485258
0.0485122
0.0485104
0.048492
0.0484714
0.0484753
0.0484366
0.0485224
0.0484641
0.0485495
0.0485379
0.0485852
0.0486717
0.0487921
0.0487316
0.0486987
0.0487659
0.0488581
0.0489536
0.0490377
0.0491236
0.0491906
0.0492684
0.0493195
0.0493953
0.0494326
0.0495114
0.0495378
0.0496035
0.0581023
0.057947
0.0577954
0.057652
0.0574822
0.0573139
0.0571301
0.0569296
0.0567359
0.0565099
0.0563024
0.0560637
0.0558395
0.0556053
0.0553739
0.0551632
0.0549704
0.0547794
0.0546078
0.0544643
0.0543277
0.0541772
0.0539882
0.0538131
0.053701
0.0535346
0.053419
0.0533065
0.0532379
0.0531788
0.0530698