/*--------------------------------*- C++ -*----------------------------------*\
| =========                 |                                                 |
| \\      /  F ield         | OpenFOAM: The Open Source CFD Toolbox           |
|  \\    /   O peration     | Version:  2312                                  |
|   \\  /    A nd           | Website:  www.openfoam.com                      |
|    \\/     M anipulation  |                                                 |
\*---------------------------------------------------------------------------*/
FoamFile
{
    version     2.0;
    format      ascii;
    arch        "LSB;label=32;scalar=64";
    class       volScalarField;
    location    "400";
    object      p;
}
// * * * * * * * * * * * * * * * * * * * * * * * * * * * * * * * * * * * * * //

dimensions      [0 2 -2 0 0 0 0];

internalField   nonuniform List<scalar> 
76025
(
0.000186468
0.000176984
0.000167408
0.000157774
0.000148195
0.000138492
0.000128453
0.000118633
0.000108513
9.85242e-05
8.85228e-05
7.84624e-05
6.8318e-05
5.82029e-05
4.80034e-05
3.78577e-05
2.78765e-05
1.77369e-05
7.69331e-06
-2.22803e-06
-1.20444e-05
-2.20242e-05
-3.17207e-05
-4.11641e-05
-5.05355e-05
-5.96907e-05
-6.89034e-05
-7.79672e-05
-8.65504e-05
-9.53911e-05
-0.000103757
-0.000111631
-0.000119296
-0.00012668
-0.000133795
-0.000140628
-0.000146977
-0.00015348
-0.00015926
-0.000164545
-0.000169309
-0.000173767
-0.000178257
-0.000181766
-0.000184811
-0.000187338
-0.000189573
-0.000190967
-0.000191537
-0.000191793
-0.000191549
-0.000190517
-0.00018878
-0.000186227
-0.000182769
-0.000178018
-0.000173114
-0.000166871
-0.000159866
-0.000152099
-0.000143195
-0.000132812
-0.000120936
-0.000108374
-9.43932e-05
-7.81426e-05
-6.15951e-05
-4.37146e-05
-2.16985e-05
0.000185579
0.000175674
0.000165739
0.000155677
0.00014551
0.000135216
0.000124878
0.000114487
0.000104002
9.3494e-05
8.29573e-05
7.23972e-05
6.18086e-05
5.11945e-05
4.0606e-05
3.00666e-05
1.94954e-05
8.99684e-06
-1.52503e-06
-1.19145e-05
-2.22919e-05
-3.25347e-05
-4.26154e-05
-5.25153e-05
-6.23165e-05
-7.20032e-05
-8.15493e-05
-9.08097e-05
-9.98597e-05
-0.000108722
-0.0001173
-0.00012571
-0.000133822
-0.000141553
-0.000149054
-0.000156194
-0.000163026
-0.000169505
-0.000175494
-0.000181124
-0.000186296
-0.000191106
-0.000195489
-0.000199235
-0.000202548
-0.000205347
-0.000207641
-0.000209215
-0.00021019
-0.000210693
-0.000210627
-0.000209825
-0.000208272
-0.000205928
-0.00020271
-0.000198581
-0.000193776
-0.000187959
-0.000181231
-0.000173587
-0.000164931
-0.000154949
-0.000143594
-0.000131181
-0.00011746
-0.00010213
-8.57469e-05
-6.80205e-05
-4.77965e-05
0.000184016
0.000173678
0.000163282
0.000152718
0.000142009
0.00013122
0.000120368
0.000109446
9.84677e-05
8.74396e-05
7.6381e-05
6.53023e-05
5.42015e-05
4.3096e-05
3.20132e-05
2.09369e-05
9.89047e-06
-1.11594e-06
-1.20697e-05
-2.29572e-05
-3.37464e-05
-4.4407e-05
-5.49379e-05
-6.53283e-05
-7.55785e-05
-8.56737e-05
-9.55615e-05
-0.000105229
-0.000114685
-0.000123899
-0.000132889
-0.000141635
-0.000150061
-0.000158154
-0.000165928
-0.000173355
-0.00018042
-0.000187102
-0.00019339
-0.000199277
-0.000204725
-0.000209734
-0.000214292
-0.00021836
-0.00022193
-0.000224972
-0.000227471
-0.000229376
-0.000230685
-0.000231415
-0.000231536
-0.000230971
-0.000229673
-0.000227605
-0.000224717
-0.000220971
-0.00021641
-0.000210952
-0.000204567
-0.000197232
-0.000188848
-0.000179274
-0.000168459
-0.000156464
-0.000143205
-0.000128555
-0.00011259
-9.53666e-05
-7.61592e-05
0.000182135
0.000171293
0.000160376
0.000149284
0.000138046
0.00012671
0.000115304
0.000103843
9.23331e-05
8.07785e-05
6.9188e-05
5.75721e-05
4.59416e-05
3.43103e-05
2.26943e-05
1.11029e-05
-4.4876e-07
-1.19499e-05
-2.33844e-05
-3.47361e-05
-4.59839e-05
-5.71143e-05
-6.81131e-05
-7.89611e-05
-8.96416e-05
-0.000100141
-0.00011044
-0.000120524
-0.000130376
-0.000139979
-0.000149322
-0.000158382
-0.000167132
-0.000175551
-0.000183628
-0.000191352
-0.000198706
-0.000205676
-0.000212245
-0.000218397
-0.000224117
-0.000229395
-0.000234221
-0.000238565
-0.0002424
-0.000245709
-0.000248477
-0.000250675
-0.000252277
-0.000253277
-0.000253659
-0.000253374
-0.000252374
-0.000250619
-0.00024807
-0.000244698
-0.000240496
-0.000235425
-0.000229437
-0.000222491
-0.000214516
-0.000205424
-0.000195158
-0.000183705
-0.000171022
-0.000157045
-0.000141746
-0.000125291
-0.000107041
0.000180049
0.000168661
0.000157196
0.000145551
0.000133755
0.000121854
0.000109883
9.78585e-05
8.57852e-05
7.36668e-05
6.15125e-05
4.93356e-05
3.71508e-05
2.49715e-05
1.28113e-05
6.8397e-07
-1.13982e-05
-2.34208e-05
-3.53686e-05
-4.72245e-05
-5.89721e-05
-7.05943e-05
-8.2073e-05
-9.33903e-05
-0.00010453
-0.000115476
-0.000126214
-0.000136723
-0.000146987
-0.000156989
-0.000166713
-0.000176142
-0.000185254
-0.00019403
-0.000202454
-0.000210515
-0.000218194
-0.000225474
-0.00023234
-0.000238785
-0.000244799
-0.000250368
-0.000255477
-0.000260102
-0.000264222
-0.000267821
-0.000270878
-0.000273372
-0.000275279
-0.000276583
-0.000277264
-0.000277288
-0.000276615
-0.000275209
-0.000273035
-0.000270065
-0.000266276
-0.000261636
-0.000256101
-0.000249627
-0.000242157
-0.000233623
-0.000223973
-0.000213175
-0.000201186
-0.000187966
-0.000173476
-0.000157895
-0.000140659
0.00017766
0.00016569
0.000153644
0.000141409
0.000129018
0.00011652
0.000103951
9.13291e-05
7.86578e-05
6.59419e-05
5.31918e-05
4.04225e-05
2.76497e-05
1.48877e-05
2.15057e-06
-1.05479e-05
-2.31934e-05
-3.57705e-05
-4.82632e-05
-6.06547e-05
-7.29277e-05
-8.50646e-05
-9.70474e-05
-0.000108859
-0.000120482
-0.000131901
-0.000143096
-0.00015405
-0.000164747
-0.000175169
-0.000185298
-0.000195117
-0.000204607
-0.00021375
-0.000222531
-0.000230935
-0.000238943
-0.00024654
-0.000253717
-0.000260469
-0.000266789
-0.00027266
-0.000278066
-0.000282989
-0.00028741
-0.000291312
-0.000294676
-0.000297483
-0.000299713
-0.000301346
-0.00030236
-0.000302728
-0.000302419
-0.000301402
-0.000299643
-0.000297114
-0.000293789
-0.000289638
-0.000284623
-0.000278701
-0.000271824
-0.000263938
-0.000254995
-0.000244958
-0.00023378
-0.00022143
-0.000207866
-0.000193204
-0.000176988
0.000174857
0.000162274
0.000149609
0.000136746
0.00012372
0.000110585
9.73797e-05
8.41228e-05
7.08189e-05
5.74725e-05
4.40944e-05
3.07e-05
1.7306e-05
3.92825e-06
-9.41819e-06
-2.27182e-05
-3.59562e-05
-4.91159e-05
-6.21806e-05
-7.5133e-05
-8.79556e-05
-0.000100631
-0.00011314
-0.000125467
-0.000137592
-0.000149498
-0.000161168
-0.000172584
-0.000183727
-0.000194581
-0.000205128
-0.00021535
-0.00022523
-0.000234751
-0.000243898
-0.000252656
-0.000261007
-0.000268938
-0.000276443
-0.00028352
-0.000290159
-0.000296347
-0.000302068
-0.000307306
-0.000312044
-0.000316268
-0.000319959
-0.000323101
-0.000325676
-0.000327664
-0.000329044
-0.000329794
-0.000329887
-0.000329297
-0.000327996
-0.000325954
-0.000323147
-0.000319547
-0.000315121
-0.000309832
-0.000303637
-0.000296494
-0.000288361
-0.000279201
-0.000268967
-0.00025764
-0.000245129
-0.000231506
-0.000216302
0.000171579
0.000158348
0.000145029
0.000131501
0.000117802
0.000103992
9.01122e-05
7.61827e-05
6.22092e-05
4.81963e-05
3.4155e-05
2.01014e-05
6.05337e-06
-7.97205e-06
-2.19586e-05
-3.58902e-05
-4.97503e-05
-6.35218e-05
-7.71873e-05
-9.07288e-05
-0.000104128
-0.000117367
-0.000130428
-0.000143291
-0.000155939
-0.000168354
-0.000180518
-0.000192412
-0.000204018
-0.00021532
-0.0002263
-0.000236941
-0.000247225
-0.000257138
-0.000266665
-0.00027579
-0.000284497
-0.000292776
-0.000300622
-0.000308035
-0.000315007
-0.000321524
-0.000327574
-0.000333142
-0.000338214
-0.000342777
-0.000346815
-0.000350313
-0.000353255
-0.000355625
-0.000357403
-0.00035857
-0.000359104
-0.000358983
-0.000358183
-0.000356679
-0.000354446
-0.000351461
-0.000347696
-0.00034312
-0.000337699
-0.0003314
-0.000324188
-0.000316032
-0.000306899
-0.000296777
-0.000285517
-0.000273193
-0.000259259
0.000167756
0.000153838
0.000139829
0.000125598
0.00011119
9.66665e-05
8.20732e-05
6.7432e-05
5.27494e-05
3.80308e-05
2.32879e-05
8.53782e-06
-6.20055e-06
-2.09089e-05
-3.55701e-05
-5.0167e-05
-6.46823e-05
-7.9098e-05
-9.33956e-05
-0.000107556
-0.000121562
-0.000135392
-0.00014903
-0.000162455
-0.000175649
-0.000188593
-0.00020127
-0.00021366
-0.000225747
-0.000237513
-0.000248941
-0.000260014
-0.000270715
-0.000281031
-0.000290948
-0.000300449
-0.000309522
-0.000318158
-0.000326356
-0.000334116
-0.000341432
-0.000348292
-0.000354683
-0.000360595
-0.000366016
-0.000370934
-0.000375338
-0.000379213
-0.000382547
-0.000385324
-0.000387531
-0.000389151
-0.000390165
-0.000390555
-0.000390303
-0.000389387
-0.000387787
-0.000385483
-0.000382453
-0.000378673
-0.000374118
-0.000368765
-0.000362588
-0.000355572
-0.000347699
-0.000338956
-0.000329181
-0.000318589
-0.000306747
0.000163301
0.000148654
0.000133911
0.000118936
0.000103777
8.84997e-05
7.31522e-05
5.77584e-05
4.23259e-05
2.68609e-05
1.13759e-05
-4.11074e-06
-1.95787e-05
-3.50083e-05
-5.03814e-05
-6.56797e-05
-8.0885e-05
-9.59784e-05
-0.00011094
-0.000125751
-0.000140391
-0.000154841
-0.000169081
-0.000183092
-0.000196854
-0.000210349
-0.000223558
-0.000236463
-0.000249046
-0.00026129
-0.000273178
-0.000284694
-0.000295823
-0.000306552
-0.000316867
-0.000326754
-0.000336201
-0.000345203
-0.000353762
-0.000361879
-0.000369549
-0.00037676
-0.000383504
-0.000389773
-0.000395556
-0.000400845
-0.00040563
-0.000409902
-0.00041365
-0.000416863
-0.000419528
-0.000421634
-0.000423166
-0.000424111
-0.000424454
-0.00042418
-0.000423271
-0.000421714
-0.000419494
-0.000416594
-0.000412998
-0.000408695
-0.000403673
-0.000397929
-0.000391443
-0.000384194
-0.000376106
-0.000367702
-0.000358112
0.000158113
0.000142689
0.000127167
0.000111403
9.54469e-05
7.93705e-05
6.32247e-05
4.70349e-05
3.08096e-05
1.45557e-05
-1.71347e-06
-1.79781e-05
-3.42164e-05
-5.04074e-05
-6.65312e-05
-8.25686e-05
-9.85002e-05
-0.000114306
-0.000129965
-0.000145458
-0.000160762
-0.000175859
-0.000190728
-0.000205349
-0.000219702
-0.000233768
-0.000247528
-0.000260964
-0.000274059
-0.000286795
-0.000299155
-0.000311125
-0.000322692
-0.000333842
-0.000344562
-0.00035484
-0.000364667
-0.000374041
-0.000382968
-0.000391448
-0.000399478
-0.000407048
-0.000414153
-0.000420787
-0.000426944
-0.000432617
-0.0004378
-0.000442487
-0.000446671
-0.000450343
-0.000453495
-0.00045612
-0.000458208
-0.00045975
-0.000460735
-0.000461155
-0.000460998
-0.000460255
-0.000458919
-0.000456983
-0.000454441
-0.000451295
-0.000447543
-0.000443177
-0.000438169
-0.000432547
-0.000426381
-0.000420262
-0.000412927
0.000152076
0.000135827
0.000119476
0.000102872
8.60703e-05
6.91462e-05
5.21541e-05
3.51213e-05
1.80571e-05
9.69111e-07
-1.61285e-05
-3.32147e-05
-5.02661e-05
-6.72601e-05
-8.41754e-05
-0.000100991
-0.000117687
-0.000134241
-0.000150633
-0.00016684
-0.00018284
-0.000198613
-0.000214138
-0.000229393
-0.00024436
-0.000259017
-0.000273347
-0.00028733
-0.00030095
-0.00031419
-0.000327033
-0.000339465
-0.000351476
-0.000363052
-0.000374181
-0.000384853
-0.000395063
-0.000404813
-0.00041411
-0.000422957
-0.00043135
-0.000439283
-0.000446755
-0.000453761
-0.000460299
-0.000466367
-0.000471961
-0.000477079
-0.000481717
-0.000485871
-0.000489537
-0.000492712
-0.000495392
-0.000497571
-0.000499246
-0.000500413
-0.000501066
-0.000501204
-0.000500828
-0.00049994
-0.00049855
-0.000496658
-0.000494258
-0.00049134
-0.000487929
-0.000484207
-0.000480268
-0.00047652
-0.00047038
0.000145054
0.000127927
0.000110695
9.31988e-05
7.54979e-05
5.76734e-05
3.9783e-05
2.18562e-05
3.9033e-06
-1.40676e-05
-3.20413e-05
-4.99956e-05
-6.79054e-05
-8.57465e-05
-0.000103496
-0.000121131
-0.000138631
-0.000155972
-0.000173131
-0.000190087
-0.000206815
-0.000223294
-0.000239501
-0.000255416
-0.000271018
-0.000286286
-0.000301202
-0.000315748
-0.000329905
-0.000343658
-0.000356991
-0.000369892
-0.00038235
-0.000394353
-0.000405891
-0.000416957
-0.00042755
-0.000437675
-0.000447342
-0.000456554
-0.000465308
-0.000473604
-0.000481442
-0.000488823
-0.000495748
-0.000502217
-0.000508231
-0.000513792
-0.0005189
-0.000523556
-0.000527761
-0.000531515
-0.00053482
-0.000537676
-0.000540086
-0.000542051
-0.000543573
-0.000544658
-0.000545318
-0.000545566
-0.000545407
-0.000544832
-0.000543831
-0.00054246
-0.000540829
-0.000539237
-0.000537618
-0.000536629
-0.000535478
0.000136885
0.000118824
0.000100656
8.22107e-05
6.3554e-05
4.47727e-05
2.59283e-05
7.05268e-06
-1.18426e-05
-3.07488e-05
-4.96497e-05
-6.85218e-05
-8.73384e-05
-0.000106073
-0.000124702
-0.0001432
-0.000161544
-0.000179711
-0.000197676
-0.000215414
-0.000232902
-0.000250116
-0.000267034
-0.000283632
-0.000299891
-0.000315788
-0.000331306
-0.000346426
-0.00036113
-0.000375403
-0.00038923
-0.000402601
-0.000415506
-0.000427933
-0.000439876
-0.000451331
-0.000462301
-0.000472795
-0.000482825
-0.000492395
-0.000501505
-0.000510158
-0.000518359
-0.000526112
-0.000533422
-0.000540295
-0.000546735
-0.000552747
-0.000558338
-0.000563512
-0.000568275
-0.000572634
-0.000576594
-0.000580164
-0.000583352
-0.000586165
-0.000588612
-0.000590712
-0.000592485
-0.000593934
-0.000595051
-0.000595837
-0.000596356
-0.000596703
-0.000597015
-0.000597509
-0.000597921
-0.00059952
-0.000600466
0.000127382
0.000108325
8.91597e-05
6.97048e-05
5.00315e-05
3.02328e-05
1.03746e-05
-9.50877e-06
-2.94042e-05
-4.93022e-05
-6.91855e-05
-8.90291e-05
-0.000108804
-0.000128483
-0.000148038
-0.000167445
-0.000186678
-0.000205712
-0.00022452
-0.000243077
-0.000261358
-0.000279337
-0.000296991
-0.000314297
-0.000331232
-0.000347776
-0.000363909
-0.000379612
-0.00039487
-0.000409666
-0.000423987
-0.000437826
-0.000451171
-0.000464015
-0.000476352
-0.000488185
-0.000499519
-0.000510369
-0.000520748
-0.000530661
-0.000540112
-0.000549109
-0.000557661
-0.000565777
-0.000573466
-0.000580737
-0.000587601
-0.000594068
-0.000600148
-0.000605852
-0.00061119
-0.000616174
-0.000620818
-0.000625137
-0.000629141
-0.000632846
-0.000636276
-0.000639458
-0.000642395
-0.00064507
-0.000647511
-0.000649801
-0.000652012
-0.000654237
-0.000656586
-0.000659153
-0.000661809
-0.000665682
-0.000668437
0.000116321
9.62035e-05
7.59765e-05
5.5447e-05
3.46919e-05
1.38109e-05
-7.12528e-06
-2.80793e-05
-4.90367e-05
-6.99867e-05
-9.09111e-05
-0.000111783
-0.000132572
-0.000153247
-0.000173781
-0.000194144
-0.000214311
-0.000234254
-0.000253946
-0.000273358
-0.000292464
-0.000311238
-0.000329654
-0.000347688
-0.000365318
-0.000382521
-0.000399279
-0.000415572
-0.000431383
-0.0004467
-0.00046151
-0.000475806
-0.000489579
-0.000502823
-0.000515537
-0.000527728
-0.000539408
-0.000550595
-0.000561301
-0.000571534
-0.000581305
-0.000590626
-0.000599511
-0.000607972
-0.000616025
-0.000623685
-0.000630966
-0.000637884
-0.000644454
-0.000650691
-0.000656615
-0.000662242
-0.000667593
-0.000672684
-0.000677536
-0.00068218
-0.000686643
-0.000690939
-0.000695046
-0.00069901
-0.000702938
-0.000706898
-0.00071093
-0.000715171
-0.000719685
-0.000724597
-0.000729906
-0.000736534
-0.000743181
0.000103436
8.21872e-05
6.08276e-05
3.91526e-05
1.72444e-05
-4.7897e-06
-2.68738e-05
-4.89673e-05
-7.10539e-05
-9.31219e-05
-0.000115152
-0.000137114
-0.000158977
-0.000180707
-0.000202274
-0.000223647
-0.000244797
-0.000265696
-0.000286313
-0.000306619
-0.000326585
-0.000346184
-0.000365388
-0.000384173
-0.000402514
-0.00042039
-0.000437779
-0.000454663
-0.000471027
-0.000486857
-0.000502143
-0.000516879
-0.000531057
-0.000544675
-0.000557739
-0.000570258
-0.00058225
-0.000593738
-0.000604734
-0.000615251
-0.000625305
-0.000634915
-0.000644099
-0.000652877
-0.000661269
-0.000669296
-0.000676976
-0.000684331
-0.000691383
-0.000698154
-0.000704668
-0.000710946
-0.000717012
-0.000722894
-0.000728629
-0.000734241
-0.000739741
-0.000745139
-0.000750496
-0.000755915
-0.000761478
-0.000767212
-0.000773236
-0.000779716
-0.000786716
-0.000794468
-0.000803008
-0.000813543
-0.000824389
8.84284e-05
6.59724e-05
4.34059e-05
2.05105e-05
-2.62575e-06
-2.58877e-05
-4.91935e-05
-7.2499e-05
-9.57859e-05
-0.000119041
-0.000142243
-0.000165362
-0.000188362
-0.000211207
-0.000233864
-0.0002563
-0.000278485
-0.000300385
-0.00032197
-0.000343207
-0.000364067
-0.000384518
-0.000404533
-0.000424085
-0.000443148
-0.0004617
-0.00047972
-0.000497189
-0.000514092
-0.000530418
-0.000546158
-0.000561305
-0.000575857
-0.000589816
-0.000603191
-0.000615999
-0.000628265
-0.00064001
-0.000651252
-0.000662008
-0.000672303
-0.000682161
-0.000691606
-0.000700664
-0.000709363
-0.000717726
-0.000725782
-0.000733556
-0.000741079
-0.000748373
-0.000755467
-0.00076239
-0.000769179
-0.000775868
-0.000782487
-0.00078904
-0.000795573
-0.000802168
-0.000808922
-0.000815906
-0.000823181
-0.000830892
-0.000839215
-0.000848299
-0.000858329
-0.000869668
-0.000882394
-0.000897568
-0.000912793
7.08976e-05
4.71499e-05
2.32916e-05
-9.09048e-07
-2.53582e-05
-4.99326e-05
-7.45439e-05
-9.91438e-05
-0.000123712
-0.000148233
-0.000172685
-0.000197034
-0.000221243
-0.000245273
-0.000269086
-0.000292648
-0.000315925
-0.000338882
-0.000361484
-0.000383698
-0.00040549
-0.000426828
-0.000447681
-0.000468021
-0.000487822
-0.000507058
-0.000525709
-0.000543754
-0.00056118
-0.000577976
-0.000594135
-0.000609651
-0.000624526
-0.000638768
-0.000652393
-0.000665424
-0.000677892
-0.000689818
-0.000701226
-0.000712145
-0.000722604
-0.000732636
-0.000742274
-0.00075155
-0.000760499
-0.000769154
-0.000777549
-0.000785713
-0.000793677
-0.000801471
-0.00080913
-0.000816695
-0.000824198
-0.00083166
-0.000839116
-0.000846634
-0.000854303
-0.000862205
-0.00087041
-0.000879037
-0.000888268
-0.000898302
-0.000909284
-0.000921504
-0.000935288
-0.000950937
-0.000968364
-0.000987997
-0.00100733
5.04819e-05
2.53569e-05
1.23901e-07
-2.54656e-05
-5.1312e-05
-7.7283e-05
-0.000103283
-0.000129259
-0.000155188
-0.000181053
-0.00020683
-0.000232483
-0.000257971
-0.000283252
-0.000308284
-0.000333031
-0.000357454
-0.000381515
-0.000405177
-0.000428403
-0.000451156
-0.000473402
-0.000495107
-0.000516241
-0.000536775
-0.000556685
-0.000575948
-0.000594546
-0.000612464
-0.000629694
-0.000646228
-0.000662065
-0.00067721
-0.000691678
-0.000705491
-0.000718681
-0.00073128
-0.000743314
-0.000754816
-0.000765821
-0.000776368
-0.000786497
-0.000796251
-0.000805674
-0.000814809
-0.000823697
-0.000832374
-0.000840877
-0.000849246
-0.000857519
-0.000865725
-0.000873897
-0.000882062
-0.000890284
-0.00089864
-0.000907205
-0.00091606
-0.000925309
-0.000935112
-0.000945679
-0.000957199
-0.000969854
-0.00098396
-0.000999818
-0.00101761
-0.00103741
-0.00105883
-0.00108172
-0.00110386
2.64773e-05
-1.3127e-07
-2.68485e-05
-5.39349e-05
-8.12856e-05
-0.00010876
-0.000136254
-0.000163711
-0.000191103
-0.000218413
-0.000245613
-0.000272666
-0.000299527
-0.000326148
-0.000352487
-0.000378499
-0.000404145
-0.000429383
-0.000454171
-0.000478469
-0.000502236
-0.000525435
-0.000548029
-0.000569984
-0.000591267
-0.000611851
-0.000631711
-0.000650828
-0.000669191
-0.000686788
-0.000703615
-0.000719677
-0.000734985
-0.00074956
-0.000763433
-0.000776642
-0.000789222
-0.00080121
-0.00081265
-0.000823589
-0.000834078
-0.000844168
-0.000853911
-0.000863357
-0.000872554
-0.000881556
-0.000890413
-0.000899172
-0.000907874
-0.00091655
-0.00092523
-0.000933972
-0.000942842
-0.000951899
-0.000961208
-0.000970857
-0.000981007
-0.000991851
-0.00100359
-0.00101636
-0.00103041
-0.001046
-0.0010633
-0.00108237
-0.00110312
-0.00112529
-0.00114815
-0.00117158
-0.00119352
-1.32627e-06
-2.95084e-05
-5.77892e-05
-8.64557e-05
-0.000115397
-0.000144461
-0.000173536
-0.000202558
-0.000231495
-0.000260329
-0.000289029
-0.000317555
-0.000345857
-0.000373885
-0.000401589
-0.000428922
-0.000455839
-0.000482293
-0.000508239
-0.000533632
-0.000558427
-0.000582583
-0.000606061
-0.000628823
-0.000650839
-0.000672076
-0.000692508
-0.000712116
-0.000730884
-0.000748801
-0.000765866
-0.000782088
-0.000797486
-0.000812089
-0.000825939
-0.000839075
-0.000851539
-0.000863381
-0.000874659
-0.000885434
-0.00089577
-0.000905731
-0.000915376
-0.000924763
-0.000933945
-0.000942981
-0.000951925
-0.000960824
-0.000969738
-0.000978731
-0.000987864
-0.000997195
-0.00100679
-0.00101673
-0.00102712
-0.0010381
-0.00104986
-0.00106256
-0.00107635
-0.00109146
-0.00110802
-0.00112601
-0.00114529
-0.00116561
-0.00118649
-0.00120745
-0.00122768
-0.00124747
-0.00126402
-3.46169e-05
-6.45224e-05
-9.45368e-05
-0.000124943
-0.000155629
-0.000186438
-0.000217247
-0.000247987
-0.000278621
-0.000309128
-0.000339475
-0.000369618
-0.000399502
-0.000429073
-0.000458275
-0.000487056
-0.000515365
-0.000543151
-0.000570362
-0.000596946
-0.000622851
-0.00064803
-0.000672434
-0.00069602
-0.000718752
-0.000740598
-0.000761531
-0.00078153
-0.000800579
-0.000818667
-0.000835796
-0.000851979
-0.000867238
-0.000881615
-0.000895155
-0.000907905
-0.000919925
-0.000931283
-0.000942057
-0.000952333
-0.000962197
-0.000971738
-0.000981046
-0.000990194
-0.000999243
-0.00100824
-0.00101721
-0.00102622
-0.00103531
-0.0010446
-0.00105417
-0.00106413
-0.00107455
-0.00108555
-0.00109726
-0.00110978
-0.00112321
-0.00113768
-0.00115334
-0.00117014
-0.00118786
-0.00120617
-0.0012246
-0.00124261
-0.00125964
-0.00127529
-0.00128913
-0.00130166
-0.00131115
-7.22048e-05
-0.000103896
-0.00013566
-0.000167844
-0.000200328
-0.000232936
-0.000265534
-0.000298044
-0.000330428
-0.000362659
-0.000394702
-0.000426507
-0.000458016
-0.000489167
-0.000519897
-0.00055015
-0.000579868
-0.000608996
-0.000637477
-0.000665258
-0.000692282
-0.000718495
-0.000743843
-0.000768275
-0.000791743
-0.000814207
-0.000835634
-0.000856
-0.000875291
-0.000893501
-0.000910637
-0.000926719
-0.000941783
-0.000955873
-0.000969037
-0.000981329
-0.000992818
-0.00100358
-0.00101372
-0.00102334
-0.00103255
-0.00104147
-0.00105024
-0.00105898
-0.00106782
-0.00107682
-0.00108603
-0.00109539
-0.00110491
-0.00111465
-0.00112481
-0.00113556
-0.00114699
-0.00115911
-0.00117198
-0.00118569
-0.00120029
-0.00121571
-0.00123171
-0.00124794
-0.00126392
-0.00127907
-0.00129286
-0.00130485
-0.00131474
-0.0013225
-0.00132823
-0.00133251
-0.0013356
-0.000119895
-0.000153623
-0.000187483
-0.000221746
-0.000256302
-0.000290982
-0.000325645
-0.0003602
-0.000394601
-0.000428821
-0.000462822
-0.00049655
-0.00052994
-0.000562922
-0.000595424
-0.00062738
-0.00065872
-0.000689377
-0.000719281
-0.000748369
-0.000776577
-0.00080385
-0.000830131
-0.000855367
-0.000879503
-0.000902486
-0.000924267
-0.000944811
-0.000964097
-0.000982116
-0.000998875
-0.0010144
-0.00102873
-0.00104192
-0.00105403
-0.00106515
-0.00107537
-0.00108482
-0.00109363
-0.00110192
-0.00110986
-0.00111759
-0.00112525
-0.00113303
-0.00114113
-0.00114975
-0.00115901
-0.00116887
-0.0011791
-0.00118953
-0.00120028
-0.00121167
-0.0012238
-0.0012365
-0.00124965
-0.00126321
-0.001277
-0.00129068
-0.00130381
-0.00131591
-0.00132651
-0.0013352
-0.00134171
-0.00134593
-0.00134796
-0.00134817
-0.00134726
-0.001346
-0.00134526
-0.000168566
-0.000204322
-0.000240057
-0.000276263
-0.000312822
-0.000349517
-0.000386185
-0.000422724
-0.000459083
-0.000495231
-0.000531127
-0.000566714
-0.000601921
-0.000636674
-0.000670899
-0.000704526
-0.000737485
-0.000769702
-0.000801098
-0.000831584
-0.000861074
-0.000889491
-0.00091677
-0.000942858
-0.000967699
-0.000991242
-0.00101344
-0.00103425
-0.00105363
-0.00107159
-0.00108812
-0.00110326
-0.00111705
-0.00112956
-0.00114086
-0.00115108
-0.00116033
-0.00116878
-0.00117658
-0.00118391
-0.00119094
-0.00119785
-0.00120479
-0.00121192
-0.00121941
-0.00122749
-0.00123644
-0.00124644
-0.00125729
-0.00126846
-0.00127956
-0.00129072
-0.001302
-0.00131303
-0.0013235
-0.00133326
-0.00134216
-0.00134996
-0.00135645
-0.00136144
-0.00136482
-0.00136651
-0.00136649
-0.00136497
-0.00136217
-0.00135843
-0.00135465
-0.00135209
-0.00135171
-0.000242732
-0.000280813
-0.000319194
-0.000357986
-0.000397086
-0.000436332
-0.000475563
-0.000514658
-0.000553554
-0.000592207
-0.000630565
-0.000668561
-0.000706109
-0.000743118
-0.000779495
-0.000815145
-0.000849983
-0.000883936
-0.000916941
-0.000948913
-0.000979748
-0.00100934
-0.00103757
-0.00106436
-0.0010896
-0.00111324
-0.00113523
-0.00115556
-0.00117417
-0.00119105
-0.00120619
-0.00121961
-0.00123136
-0.0012415
-0.00125015
-0.00125746
-0.00126361
-0.00126886
-0.00127345
-0.00127767
-0.00128179
-0.0012861
-0.00129087
-0.00129632
-0.00130259
-0.00130971
-0.00131772
-0.00132667
-0.00133635
-0.00134599
-0.00135471
-0.00136206
-0.00136784
-0.00137209
-0.00137502
-0.00137694
-0.00137811
-0.00137875
-0.00137899
-0.00137878
-0.001378
-0.00137642
-0.00137399
-0.00137095
-0.00136759
-0.00136403
-0.00136067
-0.00135814
-0.00135731
-0.000295802
-0.000336149
-0.000376204
-0.000416954
-0.000458186
-0.00049954
-0.00054082
-0.000581942
-0.00062286
-0.000663532
-0.000703903
-0.000743902
-0.000783442
-0.000822434
-0.000860792
-0.000898422
-0.000935201
-0.000971002
-0.00100573
-0.00103934
-0.00107177
-0.00110296
-0.00113282
-0.00116127
-0.00118814
-0.00121323
-0.00123639
-0.00125756
-0.00127671
-0.00129383
-0.00130893
-0.001322
-0.00133306
-0.00134218
-0.00134945
-0.00135502
-0.0013591
-0.00136193
-0.00136384
-0.00136519
-0.00136634
-0.0013676
-0.00136923
-0.00137152
-0.00137465
-0.00137857
-0.00138302
-0.00138768
-0.00139212
-0.00139584
-0.00139833
-0.00139913
-0.00139804
-0.0013954
-0.00139206
-0.00138875
-0.00138597
-0.00138398
-0.00138272
-0.00138183
-0.00138074
-0.001379
-0.00137643
-0.00137318
-0.0013696
-0.00136606
-0.00136298
-0.00136077
-0.00135953
-0.000417205
-0.000460315
-0.000504306
-0.000548817
-0.000593577
-0.000638418
-0.000683169
-0.000727695
-0.000771931
-0.00081584
-0.000859363
-0.000902412
-0.000944871
-0.000986619
-0.00102753
-0.00106749
-0.00110639
-0.00114411
-0.00118045
-0.00121525
-0.00124832
-0.00127954
-0.00130875
-0.00133581
-0.00136069
-0.00138341
-0.00140391
-0.0014221
-0.00143787
-0.00145112
-0.00146176
-0.00146972
-0.00147497
-0.00147754
-0.00147755
-0.00147515
-0.0014706
-0.00146422
-0.00145643
-0.0014477
-0.00143855
-0.00142953
-0.00142113
-0.00141383
-0.001408
-0.00140386
-0.00140147
-0.00140062
-0.00140099
-0.00140209
-0.00140333
-0.00140405
-0.0014037
-0.00140196
-0.0013988
-0.00139471
-0.00139043
-0.00138663
-0.0013837
-0.00138168
-0.00138008
-0.00137825
-0.00137582
-0.00137289
-0.00136971
-0.00136664
-0.00136399
-0.0013618
-0.00135979
0.000262946
0.000267581
0.00027268
0.000278236
0.000284192
0.000290593
0.000297572
0.000304961
0.000312766
0.000320914
0.000329523
0.000338646
0.000347932
0.000358062
0.000367556
0.000377655
0.000387187
0.000397231
0.000406926
0.000416401
0.000426127
0.000434397
0.000442407
0.000449269
0.000455364
0.000460727
0.000464519
0.000467016
0.000468609
0.000468875
0.000467167
0.000464174
0.000460008
0.000454881
0.000447869
0.000439795
0.000430907
0.000420951
0.000410072
0.00039882
0.000386914
0.000374627
0.000362419
0.000350321
0.000337537
0.000325463
0.000313102
0.000301309
0.000289613
0.000278216
0.000267308
0.000256775
0.000246825
0.00023737
0.000228388
0.000219403
0.000210976
0.000202845
0.000195089
0.000264328
0.000269216
0.000274606
0.000280419
0.000286687
0.000293426
0.000300665
0.000308371
0.00031655
0.000325167
0.000334205
0.000343675
0.000353474
0.000363614
0.000373994
0.0003844
0.000394931
0.000405352
0.000415717
0.000425638
0.000435326
0.000444457
0.000452804
0.000460199
0.000466636
0.000472131
0.000476349
0.000479056
0.000480713
0.000480923
0.000479288
0.000476383
0.000472095
0.000466406
0.000459226
0.000450795
0.000441387
0.000431062
0.000419803
0.000407891
0.000395561
0.000382856
0.000369961
0.000356842
0.000343756
0.000330836
0.000318068
0.00030564
0.000293476
0.000281635
0.000270227
0.000259255
0.000248683
0.000238617
0.000228927
0.000219701
0.000210907
0.000202525
0.000194516
0.000266124
0.000271264
0.000276877
0.000282957
0.000289521
0.000296584
0.000304144
0.000312199
0.000320748
0.000329776
0.000339249
0.000349125
0.000359375
0.000369958
0.000380805
0.000391876
0.00040301
0.000414063
0.000424924
0.00043543
0.000445502
0.000455107
0.000463952
0.000471832
0.000478706
0.000484456
0.000488904
0.000491921
0.00049366
0.000493849
0.000492358
0.000489413
0.000484867
0.000478827
0.00047131
0.000462526
0.000452615
0.000441768
0.000430037
0.00041763
0.000404679
0.000391274
0.000377618
0.000363861
0.000350133
0.000336565
0.00032318
0.000310082
0.000297313
0.000284901
0.000272912
0.000261349
0.000250229
0.000239565
0.000229402
0.000219723
0.000210493
0.000201711
0.000193338
0.000267772
0.000273156
0.000279043
0.000285416
0.0002923
0.000299704
0.000307631
0.000316077
0.000325036
0.000334496
0.000344435
0.000354815
0.000365602
0.000376735
0.000388131
0.000399745
0.00041141
0.000423046
0.000434486
0.000445617
0.000456287
0.000466369
0.000475691
0.000484044
0.000491346
0.000497434
0.00050215
0.000505416
0.000507268
0.000507484
0.00050604
0.000502994
0.000498228
0.000491908
0.000484041
0.000474846
0.00046444
0.000453004
0.000440661
0.000427606
0.000413952
0.000399847
0.000385502
0.000371086
0.000356665
0.00034238
0.000328298
0.0003145
0.000301058
0.000288008
0.000275392
0.000263238
0.000251572
0.000240397
0.000229726
0.000219551
0.000209859
0.000200651
0.00019189
0.000269056
0.000274703
0.000280881
0.000287572
0.000294799
0.000302572
0.000310896
0.000319769
0.000329184
0.000339128
0.000349578
0.000360501
0.000371855
0.000383574
0.000395577
0.000407776
0.00042005
0.000432302
0.000444378
0.000456138
0.000467425
0.000478068
0.000487904
0.00049675
0.000504483
0.000510943
0.000515974
0.00051947
0.000521449
0.000521716
0.000520264
0.000517101
0.000512132
0.00050552
0.000497288
0.000487642
0.000476712
0.00046467
0.000451668
0.000437899
0.000423522
0.000408709
0.000393644
0.00037848
0.000363316
0.000348279
0.000333466
0.000318955
0.000304818
0.000291103
0.000277852
0.000265095
0.000252852
0.000241134
0.00022994
0.00021927
0.000209115
0.000199469
0.00019029
0.000270027
0.000275949
0.000282429
0.000289449
0.000297035
0.000305196
0.000313938
0.000323263
0.000333163
0.000343625
0.000354622
0.000366121
0.000378074
0.000390415
0.000403066
0.000415926
0.000428882
0.000441812
0.000454565
0.000466985
0.000478911
0.000490168
0.000500576
0.000509953
0.000518151
0.000525012
0.00053038
0.000534127