/*--------------------------------*- C++ -*----------------------------------*\
| =========                 |                                                 |
| \\      /  F ield         | OpenFOAM: The Open Source CFD Toolbox           |
|  \\    /   O peration     | Version:  2312                                  |
|   \\  /    A nd           | Website:  www.openfoam.com                      |
|    \\/     M anipulation  |                                                 |
\*---------------------------------------------------------------------------*/
FoamFile
{
    version     2.0;
    format      ascii;
    arch        "LSB;label=32;scalar=64";
    class       surfaceScalarField;
    location    "400";
    object      phi;
}
// * * * * * * * * * * * * * * * * * * * * * * * * * * * * * * * * * * * * * //

dimensions      [0 3 -1 0 0 0 0];

oriented        oriented;

internalField   nonuniform List<scalar> 
116611
(
0.00112047
0.00043689
-0.00110487
-0.00045249
0.001136
0.000433546
-0.000449078
0.00115129
0.00042985
-0.00044514
0.00116642
0.000425796
-0.000440922
0.00118153
0.000421512
-0.000436625
0.00119671
0.000416922
-0.000432108
0.00121161
0.000412045
-0.000426937
0.00122652
0.000406881
-0.000421797
0.00124086
0.000401249
-0.000415587
0.00125504
0.000395211
-0.000409388
0.00126905
0.000388796
-0.000402805
0.00128288
0.000382023
-0.000395857
0.0012963
0.000374831
-0.000388246
0.00130927
0.000367163
-0.000380137
0.00132186
0.000359037
-0.000371624
0.00133403
0.000350468
-0.000362643
0.00134604
0.000341401
-0.000353413
0.00135765
0.000331952
-0.000343558
0.00136885
0.000321881
-0.000333082
0.00137959
0.000311432
-0.000322173
0.00138998
0.000300376
-0.000310771
0.0013997
0.000288803
-0.000298522
0.00140889
0.000276639
-0.000285822
0.00141769
0.000264032
-0.000272834
0.00142598
0.000250872
-0.000259163
0.00143388
0.00023716
-0.000245061
0.00144119
0.000222788
-0.0002301
0.00144788
0.000207923
-0.000214608
0.00145438
0.000192544
-0.00019905
0.00146001
0.000176554
-0.000182179
0.00146518
0.000160031
-0.000165203
0.00146989
0.000142771
-0.000147477
0.00147393
0.000124906
-0.000128946
0.00147738
0.000106532
-0.000109981
0.00148025
8.74699e-05
-9.03402e-05
0.00148239
6.79195e-05
-7.0062e-05
0.00148443
4.77749e-05
-4.98203e-05
0.00148547
2.69125e-05
-2.79487e-05
0.00148594
5.4817e-06
-5.9557e-06
0.00148553
-1.67594e-05
1.71747e-05
0.00148451
-3.94387e-05
4.04543e-05
0.00148324
-6.2745e-05
6.40195e-05
0.00148076
-8.68332e-05
8.93089e-05
0.00147763
-0.000111369
0.000114507
0.00147353
-0.000136555
0.000140653
0.00146893
-0.000162149
0.000166746
0.00146325
-0.000188434
0.000194115
0.00145642
-0.000215114
0.000221939
0.00144887
-0.000242102
0.00024966
0.00144036
-0.00026951
0.000278016
0.0014307
-0.000297372
0.000307028
0.00142009
-0.000325461
0.000336078
0.00140839
-0.000353805
0.000365508
0.00139541
-0.000382383
0.000395356
0.0013808
-0.000411037
0.000425646
0.00136584
-0.000439272
0.000454239
0.00134908
-0.000467701
0.000484461
0.00133155
-0.000495651
0.000513179
0.001313
-0.000523178
0.000541724
0.00129335
-0.000550179
0.000569835
0.00127212
-0.000576862
0.000598087
0.00124976
-0.00060254
0.0006249
0.00122646
-0.000626805
0.000650104
0.00120173
-0.00064995
0.000674685
0.0011753
-0.000671593
0.000698018
0.00114904
-0.000690701
0.000716964
0.00112182
-0.000707916
0.000735131
0.00109251
-0.000723418
0.000752733
-0.000733467
0.00105904
0.000766932
0.0011068
0.000421138
-0.00109105
0.00112235
0.000417999
0.00113768
0.000414516
0.00115279
0.000410691
0.00116778
0.000406522
0.00118264
0.000402064
0.00119739
0.000397293
0.00121206
0.000392209
0.00122651
0.000386802
0.00124071
0.000381011
0.00125467
0.000374836
0.00126841
0.000368284
0.00128191
0.000361334
0.00129509
0.000353976
0.00130792
0.000346213
0.0013204
0.000337984
0.0013325
0.000329307
0.00134429
0.00032016
0.00135563
0.000310537
0.00136665
0.000300416
0.00137722
0.0002898
0.00138735
0.00027868
0.00139695
0.000267033
0.00140611
0.000254877
0.00141479
0.000242188
0.00142302
0.000228934
0.00143067
0.000215139
0.0014378
0.000200791
0.00144446
0.000185886
0.00145055
0.000170454
0.00145617
0.000154419
0.00146118
0.000137755
0.00146557
0.000120518
0.0014694
0.000102703
0.00147257
8.42983e-05
0.00147518
6.5311e-05
0.00147722
4.57361e-05
0.00147856
2.55657e-05
0.00147926
4.78722e-06
0.00147916
-1.66641e-05
0.00147842
-3.86944e-05
0.00147697
-6.12955e-05
0.00147464
-8.45018e-05
0.00147154
-0.000108275
0.00146758
-0.000132586
0.00146281
-0.000157383
0.00145706
-0.000182683
0.00145038
-0.000208431
0.00144282
-0.000234544
0.00143432
-0.000261013
0.00142479
-0.000287839
0.00141426
-0.00031493
0.00140268
-0.000342229
0.00138998
-0.000369685
0.00137613
-0.00039719
0.0013614
-0.000424534
0.00134546
-0.000451762
0.00132851
-0.000478701
0.00131054
-0.000505208
0.00129157
-0.000531213
0.00127135
-0.000556641
0.00124998
-0.00058117
0.00122766
-0.00060449
0.00120422
-0.000626511
0.00117963
-0.000647
0.00115438
-0.000665449
0.00112819
-0.000681722
0.00110059
-0.000695823
-0.000705012
0.00107214
0.00109336
0.00040544
-0.00107766
0.00110893
0.00040243
0.00112434
0.000399107
0.00113955
0.000395476
0.00115455
0.000391521
0.00116937
0.000387243
0.00118403
0.000382641
0.00119853
0.000377709
0.00121287
0.000372454
0.00122702
0.00036686
0.00124095
0.00036091
0.00125464
0.000354591
0.00126809
0.00034789
0.00128126
0.000340796
0.00129417
0.000333305
0.00130676
0.000325395
0.00131902
0.000317054
0.00133091
0.000308262
0.00134244
0.000299011
0.00135357
0.000289283
0.0013643
0.000279075
0.0013746
0.000268375
0.00138446
0.000257174
0.00139387
0.000245466
0.00140282
0.000233243
0.00141126
0.00022049
0.0014192
0.000207201
0.00142662
0.000193369
0.00143352
0.000178992
0.00143991
0.000164065
0.00144575
0.000148571
0.00145101
0.0001325
0.00145567
0.000115855
0.00145974
9.86392e-05
0.00146318
8.0852e-05
0.001466
6.24893e-05
0.00146819
4.35525e-05
0.00146972
2.40371e-05
0.00147055
3.94981e-06
0.00147066
-1.6769e-05
0.00147003
-3.80689e-05
0.00146866
-5.99258e-05
0.00146651
-8.23457e-05
0.00146354
-0.000105311
0.00145974
-0.000128784
0.0014551
-0.000152738
0.00144957
-0.000177157
0.00144315
-0.000202006
0.00143583
-0.000227227
0.0014276
-0.000252786
0.00141842
-0.000278659
0.00140828
-0.000304789
0.00139716
-0.00033111
0.00138503
-0.000357553
0.00137187
-0.000384028
0.00135774
-0.000410407
0.0013426
-0.000436621
0.00132646
-0.000462564
0.00130935
-0.000488098
0.00129125
-0.000513109
0.00127208
-0.000537472
0.00125187
-0.000560963
0.00123071
-0.000583331
0.00120859
-0.000604383
0.0011855
-0.00062391
0.00116162
-0.000641575
0.00113691
-0.000657009
0.00111111
-0.000670026
-0.000678568
0.00108467
0.00108064
0.000389893
-0.0010651
0.00109612
0.000386957
0.00111148
0.000383738
0.00112672
0.000380245
0.00114177
0.000376464
0.00115664
0.000372377
0.00117131
0.000367973
0.00118577
0.000363243
0.00120005
0.000358181
0.00121412
0.000352784
0.00122799
0.000347045
0.00124163
0.000340951
0.00125502
0.000334492
0.00126817
0.000327656
0.00128104
0.000320431
0.00129363
0.000312808
0.00130591
0.000304773
0.00131786
0.000296313
0.00132945
0.000287413
0.00134068
0.000278061
0.0013515
0.000268245
0.00136193
0.000257954
0.00137192
0.000247179
0.00138147
0.000235912
0.00139057
0.000224146
0.00139919
0.000211869
0.00140732
0.000199071
0.00141494
0.000185747
0.00142204
0.000171891
0.00142861
0.000157494
0.00143464
0.00014255
0.00144008
0.000127052
0.00144494
0.000110995
0.0014492
9.43805e-05
0.00145285
7.72078e-05
0.00145586
5.94756e-05
0.00145823
4.11817e-05
0.00145994
2.23302e-05
0.00146096
2.93188e-06
0.00146126
-1.7074e-05
0.00146084
-3.76449e-05
0.00145967
-5.87605e-05
0.00145774
-8.04107e-05
0.00145501
-0.00010258
0.00145146
-0.000125242
0.0014471
-0.000148373
0.00144189
-0.000171946
0.00143581
-0.000195931
0.00142887
-0.000220283
0.00142105
-0.000244964
0.00141232
-0.000269936
0.00140268
-0.000295149
0.00139211
-0.000320538
0.00138059
-0.000346033
0.00136812
-0.000371552
0.0013547
-0.000396993
0.00134034
-0.000422264
0.00132504
-0.000447262
0.00130881
-0.000471862
0.00129163
-0.000495935
0.0012735
-0.000519339
0.00125442
-0.000541883
0.00123445
-0.000563357
0.00121361
-0.00058355
0.00119195
-0.000602247
0.00116952
-0.000619146
0.00114632
-0.000633809
0.00112229
-0.000645996
-0.000654213
0.00109793
0.00106872
0.000374431
-0.00105326
0.00108409
0.000371588
0.00109936
0.000368467
0.00111452
0.000365084
0.00112955
0.000361436
0.00114442
0.000357508
0.00115911
0.000353286
0.00117359
0.000348756
0.00118787
0.000343905
0.00120193
0.000338726
0.00121576
0.000333209
0.00122937
0.000327347
0.00124273
0.000321132
0.00125583
0.000314552
0.00126867
0.000307596
0.00128122
0.000300256
0.00129347
0.000292519
0.00130541
0.000284374
0.00131702
0.000275809
0.00132827
0.000266811
0.00133914
0.00025737
0.00134962
0.000247473
0.00135969
0.000237111
0.00136933
0.000226274
0.00137852
0.000214952
0.00138726
0.000203137
0.00139551
0.000190819
0.00140326
0.000177992
0.00141051
0.000164647
0.00141722
0.000150778
0.00142339
0.000136379
0.001429
0.000121442
0.00143403
0.000105965
0.00143847
8.99457e-05
0.00144229
7.33825e-05
0.00144549
5.62756e-05
0.00144805
3.86226e-05
0.00144995
2.04313e-05
0.00145118
1.70927e-06
0.0014517
-1.75988e-05
0.00145151
-3.74542e-05
0.00145059
-5.78381e-05
0.00144891
-7.87369e-05
0.00144647
-0.000100135
0.00144324
-0.000122012
0.00143921
-0.000144343
0.00143436
-0.000167101
0.00142869
-0.000190256
0.00142218
-0.00021377
0.00141482
-0.000237604
0.00140659
-0.000261714
0.0013975
-0.000286051
0.00138751
-0.000310554
0.00137663
-0.000335155
0.00136486
-0.000359774
0.00135218
-0.000384321
0.00133862
-0.0004087
0.00132417
-0.000432808
0.00130883
-0.000456526
0.00129262
-0.000479721
0.00127553
-0.00050225
0.00125758
-0.000523938
0.00123883
-0.0005446
0.0012193
-0.000564023
0.00119903
-0.000581977
0.00117804
-0.000598156
0.00115636
-0.000612131
0.00113415
-0.000623788
-0.000632306
0.00111225
0.00105737
0.000358923
-0.00104186
0.00107274
0.000356224
0.00108797
0.000353236
0.00110307
0.000349984
0.00111804
0.000346469
0.00113286
0.000342686
0.00114752
0.000338625
0.001162
0.000334275
0.00117628
0.000329624
0.00119035
0.000324659
0.00120419
0.000319371
0.00121778
0.000313748
0.00123113
0.000307782
0.00124422
0.000301463
0.00125704
0.00029478
0.00126957
0.000287725
0.0012818
0.000280287
0.00129372
0.000272455
0.00130531
0.000264218
0.00131656
0.000255566
0.00132744
0.000246487
0.00133794
0.000236972
0.00134804
0.000227008
0.00135773
0.000216588
0.00136698
0.0002057
0.00137578
0.000194336
0.00138412
0.000182486
0.00139196
0.000170143
0.00139931
0.0001573
0.00140614
0.000143949
0.00141244
0.000130083
0.00141818
0.000115699
0.00142336
0.00010079
0.00142795
8.53549e-05
0.00143194
6.93916e-05
0.00143531
5.29004e-05
0.00143806
3.58786e-05
0.00144015
1.8336e-05
0.00144159
2.7452e-07
0.00144234
-1.8353e-05
0.0014424
-3.75106e-05
0.00144174
-5.7181e-05
0.00144035
-7.73502e-05
0.00143822
-9.80029e-05
0.00143533
-0.00011912
0.00143166
-0.000140678
0.00142721
-0.000162651
0.00142196
-0.000185008
0.00141591
-0.000207716
0.00140904
-0.000230734
0.00140134
-0.000254018
0.00139281
-0.00027752
0.00138344
-0.000301181
0.00137322
-0.000324934
0.00136215
-0.000348703
0.00135023
-0.000372403
0.00133747
-0.000395941
0.00132388
-0.000419213
0.00130946
-0.000442104
0.00129422
-0.000464486
0.00127819
-0.000486218
0.00126139
-0.000507137
0.00124386
-0.000527069
0.00122563
-0.000545794
0.00120672
-0.000563066
0.00118715
-0.000578589
0.00116702
-0.000591998
0.00114661
-0.000603378
-0.0006123
0.0011266
0.0010464
0.000343316
-0.00103079
0.00106184
0.000340779
0.00107712
0.000337955
0.00109224
0.000334865
0.0011072
0.000331511
0.001122
0.00032789
0.00113663
0.000323996
0.00115108
0.000319823
0.00116534
0.000315361
0.0011794
0.000310601
0.00119324
0.000305533
0.00120684
0.000300145
0.00122019
0.000294428
0.00123329
0.000288371
0.0012461
0.000281963
0.00125863
0.000275196
0.00127086
0.000268058
0.00128278
0.000260541
0.00129436
0.000252632
0.0013056
0.000244323
0.00131649
0.000235603
0.001327
0.000226462
0.00133712
0.000216889
0.00134683
0.000206876
0.00135612
0.000196412
0.00136497
0.000185488
0.00137336
0.000174096
0.00138127
0.000162227
0.0013887
0.000149874
0.00139562
0.000137029
0.00140202
0.000123687
0.00140787
0.000109841
0.00141317
9.54884e-05
0.0014179
8.06245e-05
0.00142205
6.52481e-05
0.00142559
4.93589e-05
0.00142851
3.29537e-05
0.00143081
1.60449e-05
0.00143245
-1.37377e-06
0.00143344
-1.93399e-05
0.00143375
-3.78199e-05
0.00143337
-5.67976e-05
0.00143228
-7.62601e-05
0.00143047
-9.61921e-05
0.00142792
-0.000116576
0.00142463
-0.000137388
0.00142059
-0.000158605
0.00141578
-0.000180197
0.00141019
-0.000202129
0.00140382
-0.000224365
0.00139666
-0.00024686
0.00138871
-0.000269565
0.00137995
-0.000292424
0.00137039
-0.000315373
0.00136002
-0.000338339
0.00134886
-0.00036124
0.00133691
-0.000383987
0.00132417
-0.000406478
0.00131067
-0.000428604
0.00129642
-0.000450239
0.00128146
-0.000471251
0.0012658
-0.000491482
0.00124949
-0.000510755
0.00123254
-0.000528844
0.00121497
-0.000545499
0.00119686
-0.000560479
0.00117838
-0.000573519
0.00115991
-0.000584903
-0.000594052
0.00114166
0.00103581
0.000327642
-0.00102013
0.00105133
0.000325255
0.00106669
0.000322593
0.00108188
0.000319675
0.00109689
0.000316499
0.00111172
0.00031306
0.00112637
0.000309352
0.00114082
0.000305369
0.00115508
0.000301105
0.00116913
0.000296552
0.00118296
0.000291702
0.00119656
0.000286546
0.00120991
0.000281073
0.00122301
0.000275275
0.00123583
0.00026914
0.00124837
0.000262659
0.00126061
0.000255821
0.00127253
0.000248617
0.00128412
0.000241037
0.00129538
0.00023307
0.00130627
0.000224706
0.0013168
0.000215936
0.00132694
0.00020675
0.00133667
0.000197138
0.00134599
0.000187092
0.00135488
0.000176601
0.00136332
0.000165657
0.00137129
0.000154253
0.00137879
0.00014238
0.00138579
0.000130031
0.00139227
0.0001172
0.00139823
0.000103882
0.00140365
9.00715e-05
0.00140851
7.57653e-05
0.00141279
6.09616e-05
0.00141649
4.56591e-05
0.00141959
2.98551e-05
0.00142207
1.35634e-05
0.00142393
-3.23136e-06
0.00142515
-2.0556e-05
0.00142571
-3.83791e-05
0.0014256
-5.66864e-05
0.0014248
-7.54656e-05
0.00142331
-9.47021e-05
0.00142111
-0.000114378
0.0014182
-0.000134474
0.00141456
-0.000154963
0.00141018
-0.000175819
0.00140506
-0.000197009
0.00139919
-0.000218495
0.00139256
-0.000240235
0.00138518
-0.000262181
0.00137704
-0.000284279
0.00136813
-0.000306468
0.00135847
-0.000328677
0.00134806
-0.000350828
0.00133691
-0.000372836
0.00132503
-0.000394604
0.00131246
-0.000416026
0.0012992
-0.000436984
0.0012853
-0.000457349
0.00127078
-0.000476961
0.00125566
-0.00049564
0.00123998
-0.00051316
0.00122379
-0.000529311
0.00120725
-0.000543938
0.00119062
-0.000556884
0.00117423
-0.000568521
-0.000577966
0.00115815
0.00102573
0.000311956
-0.00101005
0.00104129
0.000309697
0.0010567
0.000307179
0.00107196
0.000304422
0.00108704
0.000301421
0.00110193
0.000298167
0.00111663
0.000294654
0.00113112
0.000290874
0.00114541
0.000286819
0.00115948
0.000282483
0.00117332
0.000277859
0.00118693
0.000272937
0.00120029
0.000267711
0.0012134
0.000262171
0.00122623
0.000256308
0.00123878
0.000250111
0.00125102
0.000243572
0.00126296
0.00023668
0.00127457
0.000229425
0.00128585
0.000221798
0.00129676
0.000213789
0.00130731
0.000205387
0.00131748
0.000196584
0.00132725
0.00018737
0.0013366
0.000177735
0.00134553
0.000167672
0.00135402
0.00015717
0.00136205
0.000146222
0.00136961
0.000134821
0.00137668
0.000122959
0.00138325
0.000110629
0.00138931
9.78266e-05
0.00139483
8.45464e-05
0.00139981
7.07847e-05
0.00140424
5.65394e-05
0.00140809
4.18087e-05
0.00141135
2.659e-05
0.00141402
1.08985e-05
0.00141608
-5.29168e-06
0.00141751
-2.19945e-05
0.00141832
-3.91816e-05
0.00141847
-5.68405e-05
0.00141796
-7.49597e-05
0.00141679
-9.35253e-05
0.00141493
-0.000112521
0.00141238
-0.000131926
0.00140914
-0.000151717
0.00140518
-0.000171867
0.00140052
-0.000192345
0.00139514
-0.000213115
0.00138904
-0.000234136
0.00138222
-0.000255361
0.00137468
-0.000276739
0.00136643
-0.000298211
0.00135746
-0.00031971
0.00134779
-0.000341162
0.00133744
-0.000362486
0.00132643
-0.000383588
0.00131477
-0.000404371
0.0013025
-0.000424718
0.00128966
-0.0004445
0.00127625
-0.000463556
0.00126232
-0.00048171
0.00124793
-0.000498768
0.00123322
-0.000514604
0.00121842
-0.000529143
0.0012038
-0.000542262
0.00118946
-0.000554182
-0.000563247
0.00117474
0.00101632
0.000296289
-0.00100065
0.00103187
0.000294146
0.00104729
0.000291758
0.00106257
0.000289145
0.00107769
0.000286304
0.00109263
0.000283226
0.00110738
0.000279902
0.00112193
0.000276323
0.00113627
0.000272481
0.00115039
0.000268367
0.00116427
0.000263975
0.00117791
0.000259296
0.0011913
0.000254322
0.00120443
0.000249045
0.00121728
0.000243455
0.00122985
0.000237544
0.00124211
0.000231303
0.00125407
0.000224722
0.0012657
0.000217792
0.001277
0.000210503
0.00128794
0.000202846
0.00129852
0.00019481
0.00130872
0.000186387
0.00131852
0.000177566
0.00132792
0.000168339
0.00133689
0.000158698
0.00134543
0.000148632
0.00135352
0.000138135
0.00136114
0.000127197
0.00136829
0.000115813
0.00137494
0.000103975
0.00138109
9.16784e-05
0.00138672
7.89172e-05
0.00139182
6.56876e-05
0.00139637
5.19875e-05
0.00140036
3.78139e-05
0.00140379
2.31655e-05
0.00140663
8.05729e-06
0.00140888
-7.54736e-06
0.00141054
-2.36472e-05
0.00141157
-4.02184e-05
0.00141198
-5.72505e-05
0.00141176
-7.47326e-05
0.00141088
-9.26517e-05
0.00140935
-0.000110992
0.00140716
-0.000129734
0.0014043
-0.000148855
0.00140076
-0.00016833
0.00139655
-0.000188129
0.00139165
-0.000208216
0.00138607
-0.000228554
0.0013798
-0.000249097
0.00137286
-0.000269796
0.00136524
-0.000290596
0.00135696
-0.000311432
0.00134804
-0.000332235
0.00133848
-0.000352929
0.00132832
-0.000373425
0.00131757
-0.000393627
0.00130628
-0.000413422
0.00129446
-0.000432681
0.00128215
-0.000451249
0.00126943
-0.000468984
0.00125641
-0.000485755
0.00124333
-0.000501524
0.0012304
-0.000516206
0.00121766
-0.000529525
0.0012049
-0.000541418
-0.000549302
0.00119095
0.00100766
0.000280647
-0.000992014
0.00102319
0.000278617
0.00103859
0.000276353
0.00105386
0.000273876
0.00106898
0.000271184
0.00108394
0.000268269
0.00109871
0.000265123
0.0011133
0.000261736
0.00112768
0.0002581
0.00114184
0.000254206
0.00115577
0.000250045
0.00116946
0.00024561
0.00118289
0.00024089
0.00119606
0.000235878
0.00120895
0.000230566
0.00122155
0.000224944
0.00123385
0.000219003
0.00124583
0.000212735
0.0012575
0.00020613
0.00126882
0.000199178
0.0012798
0.000191871
0.00129041
0.0001842
0.00130064
0.000176154
0.00131048
0.000167724
0.00131992
0.000158901
0.00132894
0.000149677
0.00133753
0.000140042
0.00134568
0.000129989
0.00135336
0.000119509
0.00136058
0.000108596
0.00136732
9.72415e-05
0.00137355
8.54406e-05
0.00137928
7.31879e-05
0.00138449
6.04791e-05
0.00138917
4.73116e-05
0.0013933
3.36813e-05
0.00139688
1.9589e-05
0.00139989
5.04654e-06
0.00140233
-9.9901e-06
0.00140419
-2.55048e-05
0.00140545
-4.14799e-05
0.0014061
-5.79063e-05
0.00140615
-7.4774e-05
0.00140556
-9.20706e-05
0.00140435
-0.000109781
0.00140251
-0.000127887
0.00140002
-0.000146368
0.00139689
-0.000165198
0.00139311
-0.000184349
0.00138868
-0.000203789
0.00138361
-0.000223479
0.00137789
-0.000243379
0.00137153
-0.000263441
0.00136455
-0.000283612
0.00135695
-0.000303833
0.00134875
-0.000324038
0.00133998
-0.000344154
0.00133065
-0.000364098
0.0013208
-0.000383774
0.00131045
-0.000403073
0.00129965
-0.000421876
0.00128846
-0.000440062
0.00127702
-0.000457543
0.00126551
-0.000474252
0.00125415
-0.000490156
0.00124294
-0.000504997
0.00123158
-0.000518166
0.00121934
-0.000529184
-0.000535202
0.00120524
0.000999769
0.00026502
-0.000984142
0.00101528
0.000263106
0.00103067
0.000260966
0.00104592
0.000258623
0.00106103
0.000256077
0.00107598
0.00025332
0.00109076
0.000250344
0.00110535
0.000247141
0.00111975
0.000243702
0.00113394
0.00024002
0.0011479
0.000236084
0.00116162
0.000231887
0.00117509
0.000227419
0.0011883
0.000222672
0.00120123
0.000217636
0.00121387
0.000212303
0.00122621
0.000206663
0.00123823
0.000200708
0.00124993
0.000194429
0.0012613
0.000187816
0.00127231
0.00018086
0.00128296
0.000173551
0.00129323
0.000165881
0.00130311
0.00015784
0.0013126
0.000149419
0.00132166
0.000140608
0.00133031
0.000131401
0.00133851
0.000121787
0.00134626
0.000111759
0.00135355
0.000101309
0.00136036
9.04306e-05
0.00136668
7.91174e-05
0.0013725
6.73637e-05
0.00137782
5.5165e-05
0.00138261
4.25182e-05
0.00138687
2.94183e-05
0.00139059
1.5869e-05
0.00139377
1.87354e-06
0.00139639
-1.26102e-05
0.00139844
-2.75574e-05
0.00139992
-4.29558e-05
0.00140081
-5.87975e-05
0.00140111
-7.50732e-05
0.00140081
-9.17713e-05
0.0013999
-0.000108878
0.00139839
-0.000126375
0.00139627
-0.000144244
0.00139353
-0.000162459
0.00139018
-0.000180996
0.00138621
-0.000199822
0.00138163
-0.000218902
0.00137645
-0.000238197
0.00137067
-0.000257663
0.00136431
-0.000277249
0.00135738
-0.000296901
0.00134989
-0.000316556
0.00134188
-0.000336144
0.00133337
-0.000355585
0.00132438
-0.000374789
0.00131497
-0.00039366
0.0013052
-0.000412109
0.00129521
-0.000430066
0.00128515
-0.000447486
0.0012752
-0.000464296
0.00126534
-0.000480299
0.00125529
-0.000494944
0.00124449
-0.000507373
0.00123215
-0.000516839
-0.000521218
0.00121817
0.000992677
0.000249401
-0.000977058
0.00100818
0.000247604
0.00102356
0.000245589
0.0010388
0.000243382
0.00105389
0.000240981
0.00106883
0.000238381
0.0010836
0.000235573
0.00109819
0.000232551
0.00111259
0.000229305
0.00112678
0.000225829
0.00114075
0.000222112
0.00115449
0.000218148
0.00116798
0.000213926
0.00118122
0.000209438
0.00119418
0.000204676
0.00120685
0.000199629
0.00121923
0.000194288
0.00123129
0.000188645
0.00124303
0.000182691
0.00125443
0.000176415
0.00126548
0.000169808
0.00127617
0.000162862
0.00128648
0.000155567
0.00129641
0.000147913
0.00130594
0.000139891
0.00131506
0.000131492
0.00132375
0.000122708
0.00133201
0.000113529
0.00133982
0.000103948
0.00134717
9.39564e-05
0.00135405
8.35473e-05
0.00136046
7.27141e-05
0.00136637
6.14507e-05
0.00137178
4.97524e-05
0.00137668
3.76152e-05
0.00138107
2.50337e-05
0.00138492
1.20147e-05
0.00138825
-1.45263e-06
0.00139104
-1.53974e-05
0.00139327
-2.97946e-05
0.00139495
-4.46355e-05
0.00139607
-5.99131e-05
0.00139662
-7.5619e-05
0.00139659
-9.17425e-05
0.00139598
-0.00010827
0.00139479
-0.000125186
0.00139302
-0.000142471
0.00139066
-0.000160104
0.00138772
-0.000178057
0.00138421
-0.000196304
0.00138011
-0.00021481
0.00137546
-0.000233539
0.00137024
-0.000252448
0.00136448
-0.000271492
0.0013582
-0.000290618
0.00135141
-0.000309768
0.00134414
-0.000328874
0.00133642
-0.000347865
0.0013283
-0.000366666
0.00131985
-0.00038521
0.00131119
-0.000403445
0.00130245
-0.00042133
0.00129375
-0.000438786
0.00128505
-0.000455595
0.00127603
-0.00047128
0.0012662
-0.00048512
0.00125527
-0.000496441
0.00124325
-0.000504814
-0.000510135
0.00123216
0.000986405
0.000233785
-0.000970789
0.0010019
0.000232104
0.00101728
0.000230216
0.00103252
0.000228144
0.00104761
0.00022589
0.00106254
0.000223448
0.0010773
0.000220809
0.00109189
0.000217966
0.00110628
0.000214913
0.00112047
0.00021164
0.00113444
0.00020814
0.00114818
0.000204405
0.00116168
0.000200426
0.00117493
0.000196194
0.0011879
0.0001917
0.0012006
0.000186935
0.001213
0.000181891
0.00122508
0.000176557
0.00123685
0.000170924
0.00124828
0.000164983
0.00125937
0.000158724
0.00127009
0.000152138
0.00128044
0.000145216
0.00129041
0.000137947
0.00129998
0.000130322
0.00130914
0.000122332
0.00131788
0.000113968
0.00132618
0.000105221
0.00133405
9.60824e-05
0.00134146
8.6544e-05
0.00134841
7.65983e-05
0.00135489
6.6238e-05
0.00136088
5.5457e-05
0.00136638
4.42501e-05
0.00137139
3.26119e-05
0.00137588
2.0538e-05
0.00137986
8.03627e-06
0.00138333
-4.92036e-06
0.00138627
-1.83405e-05
0.00138868
-3.22047e-05
0.00139055
-4.65067e-05
0.00139188
-6.12407e-05
0.00139266
-7.63989e-05
0.00139289
-9.19715e-05
0.00139256
-0.000107946
0.00139169
-0.000124307
0.00139025
-0.000141038
0.00138827
-0.000158117
0.00138573
-0.00017552
0.00138265
-0.000193221
0.00137903
-0.000211189
0.00137487
-0.000229388
0.00137021
-0.000247781
0.00136504
-0.000266322
0.00135938
-0.000284965
0.00135327
-0.000303653
0.00134673
-0.000322331
0.0013398
-0.000340942
0.00133257
-0.000359437
0.00132514
-0.000377775
0.0013176
-0.000395909
0.00131002
-0.000413744
0.00130228
-0.000431051
0.00129408
-0.000447389
0.00128496
-0.000462166
0.00127473
-0.000474886
0.00126385
-0.000485559
0.00125362
-0.000494592
-0.000503579
0.00124707
0.000980986
0.000218165
-0.000965366
0.000996488
0.000216602
0.00101186
0.00021484
0.0010271
0.000212905
0.0010422
0.000210798
0.00105713
0.000208513
0.0010719
0.000206044
0.00108648
0.000203382
0.00110087
0.000200521
0.00111506
0.000197452
0.00112903
0.000194169
0.00114278
0.000190662
0.00115628
0.000186924
0.00116953
0.000182946
0.00118251
0.000178719
0.00119521
0.000174234
0.00120762
0.000169482
0.00121972
0.000164455
0.0012315
0.000159141
0.00124295
0.000153533
0.00125406
0.000147619
0.0012648
0.000141391
0.00127518
0.000134839
0.00128517
0.000127953
0.00129477
0.000120722
0.00130397
0.000113139
0.00131274
0.000105192
0.00132109
9.68729e-05
0.001329
8.81727e-05
0.00133646
7.90827e-05
0.00134347
6.95947e-05
0.00135
5.9701e-05
0.00135607
4.9395e-05
0.00136165
3.86707e-05
0.00136674
2.75215e-05
0.00137133
1.59453e-05
0.00137542
3.94545e-06
0.00137901
-8.51459e-06
0.0013821
-2.14245e-05
0.00138467
-3.47726e-05
0.00138671
-4.85546e-05
0.00138824
-6.27654e-05
0.00138924
-7.73981e-05
0.00138971
-9.24436e-05
0.00138965
-0.00010789
0.00138907
-0.000123724
0.00138796
-0.000139929
0.00138633
-0.000156485
0.00138418
-0.000173369
0.00138151
-0.000190558
0.00137835
-0.000208021
0.00137469
-0.000225727
0.00137055
-0.00024364
0.00136594
-0.000261719
0.0013609
-0.000279921
0.00135545
-0.000298203
0.00134964
-0.000316523
0.00134354
-0.000334845
0.00133724
-0.00035313
0.00133078
-0.00037132
0.00132417
-0.000389294
0.00131724
-0.000406812
0.00130967
-0.00042348
0.00130112
-0.000438839
0.00129154
-0.000452587
0.00128153
-0.000464881
0.00127285
-0.000476873
0.0012679
-0.000489645
-0.000508697
0.00127302
0.000976449
0.000202533
-0.000960817
0.000991961
0.000201089
0.00100735
0.000199454
0.0010226
0.000197656
0.0010377
0.000195698
0.00105264
0.000193572
0.00106741
0.000191272
0.001082
0.000188791
0.0010964
0.000186123
0.00111059
0.000183259
0.00112457
0.000180192
0.00113831
0.000176915
0.00115182
0.000173418
0.00116507
0.000169694
0.00117806
0.000165733
0.00119076
0.000161528
0.00120318
0.000157069
0.00121529
0.000152346
0.00122708
0.000147351
0.00123853
0.000142074
0.00124965
0.000136504
0.00126041
0.000130632
0.0012708
0.000124449
0.00128081
0.000117943
0.00129043
0.000111105
0.00129964
0.000103925
0.00130844
9.63929e-05
0.00131681
8.84989e-05
0.00132475
8.02335e-05
0.00133225
7.15875e-05
0.00133929
6.25521e-05
0.00134587
5.31191e-05
0.00135198
4.3281e-05
0.00135762
3.30311e-05
0.00136278
2.23615e-05
0.00136746
1.12735e-05
0.00137164
-2.42596e-07
0.00137535
-1.22167e-05
0.00137855
-2.46308e-05
0.00138126
-3.74796e-05
0.00138347
-5.07601e-05
0.00138517
-6.44681e-05
0.00138637
-7.85974e-05
0.00138706
-9.31396e-05
0.00138726
-0.000108084
0.00138695
-0.000123418
0.00138615
-0.000139125
0.00138485
-0.000155188
0.00138307
-0.000171585
0.0013808
-0.000188294
0.00137807
-0.000205286
0.00137487
-0.000222534
0.00137124
-0.000240005
0.00136718
-0.000257666
0.00136275
-0.000275485
0.00135798
-0.00029343
0.00135292
-0.000311469
0.00134763
-0.000329557
0.00134212
-0.000347618
0.00133632
-0.000365515
0.00133002
-0.000382996
0.00132294
-0.000399738
0.0013149
-0.000415434
0.00130605
-0.000429993
0.00129727
-0.000443802
0.00129039
-0.000458002
0.00128805
-0.000474536
0.00129259
-0.000494187
-0.000521491
0.00130538
0.000972828
0.000186882
-0.000957177
0.00098836
0.000185558
0.00100376
0.000184051
0.00101903
0.000182392
0.00103414
0.000180581
0.0010491
0.000178615
0.00106389
0.000176486
0.00107849
0.000174188
0.0010929
0.000171713
0.0011071
0.000169055
0.00112109
0.000166206
0.00113485
0.000163158
0.00114836
0.000159904
0.00116162
0.000156434
0.00117461
0.000152742
0.00118732
0.000148817
0.00119974
0.000144651
0.00121185
0.000140234
0.00122365
0.000135557
0.00123511
0.000130611
0.00124623
0.000125386
0.00125699
0.00011987
0.00126738
0.000114055
0.0012774
0.000107929
0.00128702
0.000101483
0.00129624
9.47055e-05
0.00130505
8.75864e-05
0.00131343
8.01153e-05
0.00132138
7.22822e-05
0.00132889
6.4077e-05
0.00133595
5.54903e-05
0.00134256
4.65129e-05
0.0013487
3.71369e-05
0.00135438
2.73536e-05
0.00135959
1.71561e-05
0.00136431
6.54616e-06
0.00136858
-4.50342e-06
0.00137236
-1.60017e-05
0.00137566
-2.79351e-05
0.00137849
-4.03018e-05
0.00138083
-5.31e-05
0.00138268
-6.63261e-05
0.00138406
-7.99746e-05
0.00138496
-9.40379e-05
0.00138538
-0.000108506
0.00138533
-0.000123366
0.00138481
-0.000138604
0.00138382
-0.000154203
0.00138238
-0.000170143
0.00138049
-0.000186404
0.00137817
-0.00020296
0.00137542
-0.000219789
0.00137228
-0.000236865
0.00136878
-0.000254164
0.00136495
-0.000271658
0.00136084
-0.000289312
0.00135644
-0.000307068
0.00135171
-0.000324828
0.00134653
-0.000342442
0.00134071
-0.000359695
0.00133405
-0.000376337
0.00132656
-0.000392249
0.0013187
-0.000407569
0.00131159
-0.000422887
0.00130723
-0.000439439
0.0013081
-0.000458871
0.00131591
-0.000482352
0.00133078
-0.000509056
-0.000540439
0.00134973
0.000970176
0.000171208
-0.000954502
0.00098573
0.000170003
0.00100116
0.000168625
0.00101644
0.000167104
0.00103158
0.000165443
0.00104656
0.000163637
0.00106137
0.00016168
0.00107599
0.000159565
0.00109042
0.000157285
0.00110464
0.000154833
0.00111864
0.000152203
0.00113241
0.000149387
0.00114594
0.000146376
0.00115921
0.000143163
0.00117222
0.000139739
0.00118494
0.000136096
0.00119736
0.000132225
0.00120948
0.000128116
0.00122128
0.00012376
0.00123274
0.000119147
0.00124386
0.000114267
0.00125462
0.000109109
0.00126501
0.000103664
0.00127502
9.79198e-05
0.00128464
9.18661e-05
0.00129385
8.54919e-05
0.00130265
7.87861e-05
0.00131103
7.17378e-05
0.00131897
6.43359e-05
0.00132648
5.65698e-05
0.00133354
4.8429e-05
0.00134015