/*--------------------------------*- C++ -*----------------------------------*\
| =========                 |                                                 |
| \\      /  F ield         | OpenFOAM: The Open Source CFD Toolbox           |
|  \\    /   O peration     | Version:  2312                                  |
|   \\  /    A nd           | Website:  www.openfoam.com                      |
|    \\/     M anipulation  |                                                 |
\*---------------------------------------------------------------------------*/
FoamFile
{
    version     2.0;
    format      ascii;
    arch        "LSB;label=32;scalar=64";
    class       volVectorField;
    location    "400";
    object      U;
}
// * * * * * * * * * * * * * * * * * * * * * * * * * * * * * * * * * * * * * //

dimensions      [0 1 -1 0 0 0 0];

internalField   nonuniform List<vector> 
76025
(
(0.0384664 -0.00669549 0)
(0.0386645 -0.00670647 2.83834e-22)
(0.0388615 -0.00671403 0)
(0.0390572 -0.00671649 0)
(0.0392644 -0.00671361 -3.65388e-22)
(0.0394771 -0.00669287 -5.26238e-22)
(0.0396976 -0.00667853 7.90713e-22)
(0.0399221 -0.00664849 -2.94872e-22)
(0.0401377 -0.00661956 -3.09875e-23)
(0.0403506 -0.0065818 -4.43874e-24)
(0.0405679 -0.00653505 2.38644e-23)
(0.0407903 -0.0064778 -2.33686e-22)
(0.0410119 -0.00641662 3.07171e-22)
(0.041228 -0.00634442 0)
(0.0414372 -0.00625975 -1.78619e-22)
(0.0416463 -0.00617683 0)
(0.041853 -0.00607391 0)
(0.0420626 -0.00597192 0)
(0.0422676 -0.00585524 -2.78883e-22)
(0.0424694 -0.00573819 3.51648e-22)
(0.0426666 -0.0056052 3.85053e-22)
(0.042859 -0.00546871 1.20778e-21)
(0.0430431 -0.00532135 -8.32026e-22)
(0.0432229 -0.00516187 -1.45134e-21)
(0.043399 -0.00499871 -6.21307e-23)
(0.0435728 -0.00482892 -6.20388e-22)
(0.0437403 -0.00464052 1.72106e-21)
(0.0439054 -0.00444972 -1.75453e-21)
(0.0440667 -0.0042438 6.09895e-22)
(0.0442232 -0.00402202 -6.41489e-22)
(0.0443691 -0.00381462 -6.78719e-22)
(0.0445121 -0.00359166 1.49885e-21)
(0.0446479 -0.00335234 -2.29443e-21)
(0.0447789 -0.00311236 -4.15905e-22)
(0.0449025 -0.00285729 2.11435e-21)
(0.0450196 -0.00260038 1.52505e-23)
(0.0451336 -0.00232681 -4.38573e-22)
(0.0452449 -0.00204454 2.44925e-22)
(0.0453459 -0.00176546 1.67624e-23)
(0.0454343 -0.00147236 -3.69422e-22)
(0.0455123 -0.00117612 2.47338e-22)
(0.0455885 -0.000866855 -1.21425e-22)
(0.0456592 -0.000542436 2.4385e-22)
(0.0457134 -0.000217762 -4.90242e-22)
(0.0457521 0.000118334 -5.08863e-22)
(0.0457814 0.000460724 9.56811e-22)
(0.045801 0.000817995 1.0113e-21)
(0.0457982 0.00118064 -3.05046e-21)
(0.0457749 0.00155244 1.92377e-21)
(0.0457384 0.00193156 -6.79452e-23)
(0.0456824 0.00231895 -4.9193e-21)
(0.0456024 0.00271788 -1.87476e-21)
(0.0455001 0.00312332 1.99583e-21)
(0.0453711 0.00353822 0)
(0.0452035 0.00395842 -1.81499e-21)
(0.0450074 0.00439043 -1.9378e-21)
(0.0447871 0.0048278 6.32323e-23)
(0.0445262 0.00528101 -1.8294e-21)
(0.0442323 0.00575046 1.78917e-21)
(0.0439044 0.0062342 -5.16871e-21)
(0.0435553 0.00667976 -3.66453e-21)
(0.0431303 0.00717359 -3.38799e-22)
(0.0426586 0.00767616 0)
(0.0421415 0.00818157 8.41748e-21)
(0.041559 0.00868671 -2.96312e-21)
(0.0409051 0.00921449 1.65808e-21)
(0.0402173 0.00976563 -3.04218e-21)
(0.0394523 0.0102816 3.41026e-21)
(0.0386399 0.0108526 6.33373e-21)
(0.0384421 -0.00705641 3.18114e-22)
(0.0386548 -0.00706892 7.86431e-22)
(0.0388662 -0.00707559 -1.07493e-21)
(0.0390773 -0.00707676 0)
(0.0392893 -0.00707088 7.97391e-22)
(0.0395082 -0.00705667 -1.5132e-22)
(0.0397292 -0.00703541 -4.60603e-22)
(0.0399571 -0.00700645 0)
(0.0401876 -0.00697079 2.67087e-23)
(0.040417 -0.00692832 4.61208e-24)
(0.040646 -0.00687787 -4.10936e-23)
(0.0408766 -0.00681886 3.20051e-23)
(0.0411081 -0.00675216 0)
(0.0413402 -0.00667658 0)
(0.041571 -0.00659179 -4.76781e-22)
(0.0417965 -0.00649981 1.14371e-21)
(0.0420217 -0.00639736 2.97276e-22)
(0.0422435 -0.0062878 -9.94724e-22)
(0.0424641 -0.00616826 6.60391e-22)
(0.0426805 -0.00604109 -3.63515e-22)
(0.0428955 -0.00590391 4.77495e-22)
(0.0431061 -0.0057587 -8.77375e-22)
(0.0433109 -0.00560404 1.01823e-21)
(0.0435108 -0.00543925 -1.60696e-21)
(0.0437061 -0.00526544 1.09302e-21)
(0.0438971 -0.00508319 1.80527e-21)
(0.0440842 -0.00489143 -1.23806e-21)
(0.0442628 -0.00469061 0)
(0.0444374 -0.00447939 0)
(0.044608 -0.00425867 -7.74689e-22)
(0.0447717 -0.00403082 0)
(0.0449298 -0.00379382 -8.47328e-22)
(0.0450815 -0.0035469 8.63826e-22)
(0.0452246 -0.00329129 -1.33155e-21)
(0.0453612 -0.00302539 3.44716e-23)
(0.04549 -0.00275037 -4.6164e-22)
(0.0456133 -0.00246368 0)
(0.0457291 -0.00217114 -1.03489e-21)
(0.0458354 -0.00187052 8.0599e-22)
(0.0459308 -0.00156282 -6.62683e-22)
(0.0460157 -0.00124475 4.03642e-22)
(0.0460917 -0.000915579 -2.44227e-24)
(0.046156 -0.000582538 1.45381e-22)
(0.0462059 -0.00024165 -1.35312e-22)
(0.046242 0.000108795 1.11297e-21)
(0.046264 0.000470583 -5.62634e-22)
(0.0462707 0.000839147 -5.85636e-22)
(0.0462585 0.00121503 1.0468e-21)
(0.0462276 0.0016037 3.24159e-21)
(0.0461791 0.00200313 -3.46856e-23)
(0.0461106 0.00241026 3.16617e-21)
(0.0460189 0.00282659 -1.05931e-21)
(0.0459034 0.00325125 -3.07673e-21)
(0.0457621 0.00368318 2.08717e-21)
(0.045592 0.0041221 0)
(0.0453908 0.00457864 6.15268e-21)
(0.0451623 0.00504125 -1.21875e-23)
(0.0448992 0.00551587 -2.01971e-21)
(0.0446021 0.00600108 -2.08037e-21)
(0.0442713 0.00649495 0)
(0.0439001 0.00699745 1.79397e-21)
(0.0434804 0.00751016 5.63574e-21)
(0.0430116 0.00803409 0)
(0.0424937 0.00856798 -3.60744e-21)
(0.0419189 0.00911151 2.24739e-21)
(0.0412738 0.00967561 -3.72131e-21)
(0.0405757 0.0102577 1.85813e-21)
(0.0397917 0.0108185 -3.47581e-21)
(0.0389379 0.0114929 -3.408e-21)
(0.0384077 -0.00743563 -1.52344e-21)
(0.0386345 -0.00744701 9.29084e-22)
(0.0388614 -0.00745281 -2.27893e-22)
(0.03909 -0.007453 7.04236e-22)
(0.0393185 -0.00744601 -8.43041e-22)
(0.0395481 -0.00743168 -3.72893e-22)
(0.039779 -0.00740919 4.29833e-22)
(0.040013 -0.0073789 0)
(0.0402506 -0.00734045 3.02626e-23)
(0.0404908 -0.00729388 0)
(0.040732 -0.00723907 1.06862e-22)
(0.0409737 -0.00717596 -1.12062e-22)
(0.0412158 -0.00710441 -9.42872e-22)
(0.0414582 -0.00702422 7.52811e-22)
(0.0417011 -0.00693508 -2.27782e-22)
(0.0419427 -0.00683669 -8.77221e-22)
(0.0421829 -0.00672941 3.06822e-22)
(0.0424205 -0.00661292 3.41361e-22)
(0.0426556 -0.00648757 1.26783e-21)
(0.0428875 -0.00635273 -8.414e-22)
(0.0431161 -0.00620868 -5.03981e-22)
(0.0433409 -0.00605521 1.06789e-21)
(0.0435615 -0.00589217 -4.88414e-22)
(0.0437779 -0.00571909 -6.19498e-22)
(0.0439897 -0.00553613 0)
(0.0441962 -0.00534368 6.95972e-22)
(0.0443969 -0.00514207 7.05616e-22)
(0.0445915 -0.0049306 -6.73941e-22)
(0.0447801 -0.00470907 0)
(0.0449629 -0.004478 1.63099e-21)
(0.04514 -0.00423703 -8.85942e-22)
(0.0453099 -0.00398689 -6.85665e-23)
(0.045472 -0.00372757 0)
(0.045626 -0.00345832 4.63796e-22)
(0.045772 -0.00317946 -1.49476e-21)
(0.0459096 -0.00289081 1.02251e-21)
(0.0460385 -0.00259261 0)
(0.0461582 -0.00228557 8.28616e-22)
(0.0462683 -0.00196865 -8.63999e-22)
(0.0463671 -0.00164468 -1.39499e-22)
(0.0464541 -0.0013118 0)
(0.0465292 -0.000970129 -2.92155e-22)
(0.0465918 -0.000620563 -1.47319e-22)
(0.0466406 -0.000261625 1.36914e-22)
(0.0466746 0.000106709 -8.59772e-22)
(0.0466931 0.000484552 -6.0841e-22)
(0.0466953 0.000871057 1.13412e-21)
(0.0466797 0.00126722 -1.17486e-21)
(0.0466456 0.00167402 1.20723e-21)
(0.0465925 0.00209041 -1.16113e-21)
(0.0465192 0.00251546 -1.11885e-21)
(0.046424 0.00294986 2.39265e-21)
(0.0463052 0.0033937 0)
(0.0461614 0.0038469 2.36705e-21)
(0.0459902 0.00431027 9.17886e-23)
(0.0457899 0.00478587 -2.25164e-21)
(0.0455604 0.00527151 -2.2271e-21)
(0.0452987 0.00576877 4.42994e-21)
(0.0450027 0.00627812 -9.42838e-23)
(0.0446703 0.00679931 2.27476e-21)
(0.0442985 0.00733005 -4.51841e-21)
(0.0438813 0.00787249 -2.35325e-21)
(0.0434146 0.00842961 -2.02408e-23)
(0.0428962 0.00900043 -2.12605e-21)
(0.0423219 0.00958513 -1.91455e-21)
(0.0416832 0.0101849 -6.50447e-21)
(0.0409855 0.010807 0)
(0.0401925 0.0114196 -2.06706e-21)
(0.0393564 0.0121519 2.06265e-21)
(0.038379 -0.00783871 0)
(0.0386146 -0.00784955 2.77564e-22)
(0.0388531 -0.00785439 1.04203e-21)
(0.0390956 -0.00785332 -8.03463e-22)
(0.0393401 -0.00784503 -3.03844e-22)
(0.0395853 -0.00782897 5.2375e-22)
(0.0398313 -0.00780478 -6.00049e-23)
(0.0400781 -0.00777236 -1.36361e-23)
(0.0403263 -0.00773147 -2.51919e-23)
(0.0405763 -0.0076819 -4.22312e-22)
(0.0408279 -0.00762349 4.57266e-22)
(0.0410806 -0.00755615 7.63402e-22)
(0.0413339 -0.00747978 -1.02381e-22)
(0.0415874 -0.00739432 -1.01465e-21)
(0.041841 -0.00729956 8.668e-22)
(0.0420942 -0.0071953 -3.60677e-22)
(0.0423464 -0.00708163 4.02766e-22)
(0.042597 -0.00695837 4.4457e-22)
(0.0428453 -0.00682561 -1.39537e-21)
(0.0430907 -0.00668317 4.31935e-22)
(0.0433327 -0.00653102 5.14314e-22)
(0.043571 -0.00636898 0)
(0.0438052 -0.00619694 1.3357e-21)
(0.0440349 -0.00601479 -6.4896e-22)
(0.0442598 -0.00582255 -1.4347e-21)
(0.0444793 -0.00562035 -1.55258e-21)
(0.0446931 -0.00540811 3.07346e-21)
(0.0449008 -0.0051857 -1.63446e-21)
(0.0451021 -0.00495313 0)
(0.0452966 -0.00471047 -1.78961e-21)
(0.045484 -0.00445793 -5.045e-23)
(0.0456638 -0.00419577 1.88951e-21)
(0.0458353 -0.00392382 -1.02424e-21)
(0.0459984 -0.00364185 2.63771e-21)
(0.0461525 -0.00334993 -5.07494e-22)
(0.0462975 -0.00304808 0)
(0.0464328 -0.00273645 0)
(0.046558 -0.00241499 3.11342e-22)
(0.0466727 -0.00208346 2.99439e-22)
(0.0467754 -0.00174442 1.61599e-22)
(0.0468659 -0.00139643 -5.07908e-24)
(0.0469437 -0.00103906 1.52471e-22)
(0.0470082 -0.000672465 0)
(0.0470585 -0.000296596 -2.16602e-23)
(0.0470935 8.86636e-05 0)
(0.0471127 0.000483531 5.95344e-22)
(0.0471153 0.000887984 5.41324e-24)
(0.0471002 0.00130215 -1.94838e-21)
(0.0470665 0.00172636 0)
(0.0470136 0.00216063 -1.26737e-21)
(0.0469403 0.00260478 1.25788e-21)
(0.0468452 0.00305897 -2.42563e-21)
(0.0467268 0.00352339 0)
(0.0465836 0.00399821 -7.47062e-21)
(0.0464137 0.00448389 8.83931e-23)
(0.0462155 0.00498149 2.47067e-21)
(0.0459876 0.00549108 2.44921e-21)
(0.0457278 0.00601308 0)
(0.0454337 0.00654794 0)
(0.0451029 0.00709571 -2.30629e-21)
(0.0447322 0.00765628 4.58006e-21)
(0.0443169 0.00823076 4.54938e-21)
(0.0438534 0.00882052 0)
(0.0433384 0.00942604 -4.91675e-21)
(0.0427685 0.0100481 0)
(0.0421355 0.0106866 6.77748e-21)
(0.0414399 0.0113513 -2.33759e-21)
(0.0406458 0.0120135 -2.3227e-21)
(0.0398189 0.0127961 -2.54159e-21)
(0.0383569 -0.00826623 0)
(0.038602 -0.00827762 0)
(0.0388501 -0.00828226 1.94277e-22)
(0.0391032 -0.0082804 -5.42174e-22)
(0.0393602 -0.00827081 6.35732e-22)
(0.0396195 -0.00825292 -7.78476e-23)
(0.0398805 -0.00822652 0)
(0.0401425 -0.00819148 1.39728e-23)
(0.0404052 -0.00814761 0)
(0.0406686 -0.00809469 2.91062e-22)
(0.0409328 -0.00803253 1.32376e-22)
(0.0411976 -0.00796091 -3.81012e-22)
(0.0414629 -0.00787971 0)
(0.0417282 -0.00778884 6.52407e-22)
(0.0419932 -0.00768817 -2.09023e-21)
(0.0422577 -0.00757762 1.51869e-21)
(0.0425211 -0.00745709 -2.15519e-21)
(0.0427831 -0.00732653 4.60452e-22)
(0.0430432 -0.00718585 -5.51711e-22)
(0.0433006 -0.00703503 5.38543e-22)
(0.043555 -0.00687397 6.19552e-22)
(0.0438057 -0.00670261 -1.94069e-21)
(0.0440522 -0.00652088 -1.38795e-21)
(0.0442941 -0.00632874 0)
(0.0445309 -0.00612614 1.59098e-21)
(0.0447623 -0.0059131 8.63411e-22)
(0.0449878 -0.0056896 -2.50184e-21)
(0.0452069 -0.00545563 8.6492e-22)
(0.0454193 -0.00521123 -1.91573e-21)
(0.0456244 -0.00495642 2.86841e-21)
(0.0458218 -0.00469131 -1.06093e-21)
(0.0460112 -0.00441597 5.5113e-22)
(0.0461919 -0.00413038 0)
(0.0463637 -0.0038345 -5.51231e-22)
(0.0465259 -0.00352834 -5.70933e-22)
(0.0466783 -0.00321192 0)
(0.0468203 -0.0028854 6.5463e-22)
(0.0469515 -0.00254866 -9.73578e-22)
(0.0470715 -0.00220156 6.6415e-22)
(0.0471791 -0.00184652 -3.38208e-22)
(0.047274 -0.00148229 -5.85777e-24)
(0.0473556 -0.00110854 -2.62624e-22)
(0.0474234 -0.000725286 8.50316e-23)
(0.0474766 -0.000332525 3.3237e-22)
(0.0475144 6.99065e-05 2.05197e-23)
(0.0475361 0.000482166 2.06518e-21)
(0.047541 0.000904323 0)
(0.0475282 0.00133648 1.33247e-21)
(0.0474967 0.00177891 -4.47112e-23)
(0.0474458 0.00223177 -1.36906e-21)
(0.0473745 0.0026951 0)
(0.0472813 0.00316903 -1.36713e-21)
(0.0471651 0.00365386 1.35858e-21)
(0.0470242 0.00414993 2.61675e-21)
(0.046857 0.00465778 0)
(0.0466619 0.00517813 -5.27505e-21)
(0.046437 0.00571142 5.34456e-21)
(0.0461804 0.00625809 -5.31835e-21)
(0.0458896 0.00681872 -1.02435e-22)
(0.0455619 0.00739384 0)
(0.0451943 0.00798384 -2.61602e-21)
(0.0447831 0.00858965 2.49951e-21)
(0.0443246 0.00921237 2.82155e-21)
(0.0438152 0.00985305 4.97192e-21)
(0.0432511 0.0105129 -7.99381e-21)
(0.0426235 0.0111915 5.17489e-21)
(0.0419313 0.0118994 -2.5929e-21)
(0.0411412 0.0126091 2.85375e-21)
(0.0403399 0.0134396 7.46007e-21)
(0.0383308 -0.00871871 -1.04894e-21)
(0.0385908 -0.00873098 1.98771e-22)
(0.038852 -0.0087359 8.19631e-22)
(0.0391174 -0.00873371 0)
(0.0393864 -0.00872312 -9.8915e-23)
(0.0396583 -0.00870357 0)
(0.0399328 -0.00867491 -8.3739e-23)
(0.0402091 -0.00863701 -1.00156e-22)
(0.0404867 -0.00858976 3.19931e-22)
(0.0407652 -0.00853298 -1.87698e-22)
(0.0410441 -0.00846651 -1.93536e-22)
(0.0413231 -0.00839013 -2.87251e-22)
(0.0416021 -0.00830368 0)
(0.0418807 -0.00820703 0)
(0.0421587 -0.00810004 3.81268e-22)
(0.0424357 -0.00798264 4.27304e-22)
(0.0427113 -0.00785472 -1.04677e-21)
(0.0429852 -0.00771622 1.04473e-21)
(0.043257 -0.00756708 1.18701e-21)
(0.0435261 -0.00740725 -1.32064e-21)
(0.0437921 -0.00723667 2.66562e-21)
(0.0440544 -0.00705532 2.33026e-23)
(0.0443125 -0.00686314 -1.5676e-21)
(0.0445659 -0.00666013 -8.52884e-22)
(0.0448141 -0.00644625 -1.76221e-21)
(0.0450566 -0.00622152 1.76494e-21)
(0.045293 -0.00598596 1.93437e-21)
(0.0455227 -0.00573957 -1.93948e-21)
(0.0457453 -0.00548241 0)
(0.0459603 -0.00521449 0)
(0.0461673 -0.00493589 2.79596e-21)
(0.0463658 -0.00464667 7.86806e-23)
(0.0465553 -0.00434688 -1.18523e-21)
(0.0467353 -0.00403655 -1.26209e-21)
(0.0469054 -0.0037157 1.27115e-21)
(0.047065 -0.00338437 0)
(0.0472138 -0.00304274 -6.63729e-22)
(0.0473512 -0.0026906 -1.08141e-21)
(0.0474769 -0.00232796 7.19616e-22)
(0.0475898 -0.00195702 -1.23889e-23)
(0.0476897 -0.00157665 -5.77458e-23)
(0.047776 -0.00118654 2.70459e-22)
(0.0478482 -0.000786626 1.91874e-22)
(0.0479054 -0.000376864 3.74053e-22)
(0.0479471 4.28527e-05 -1.84081e-21)
(0.0479726 0.000472651 1.99838e-23)
(0.0479811 0.000912655 0)
(0.0479718 0.00136302 -1.54415e-21)
(0.0479438 0.00182397 4.48101e-21)
(0.0478963 0.00229573 -3.02476e-21)
(0.0478283 0.00277847 -1.48867e-21)
(0.0477386 0.00327246 -5.58913e-23)
(0.0476258 0.00377804 -1.42793e-21)
(0.0474885 0.00429566 -5.96199e-24)
(0.0473252 0.00482587 2.93206e-21)
(0.0471341 0.00536931 -3.03198e-21)
(0.0469135 0.00592659 -2.91108e-21)
(0.0466612 0.00649836 5.80035e-21)
(0.0463749 0.00708531 -1.0663e-22)
(0.046052 0.00768821 2.87595e-21)
(0.0456895 0.00830773 -2.87261e-21)
(0.0452841 0.00894496 2.7517e-21)
(0.0448325 0.0096009 -5.48555e-21)
(0.0443304 0.010277 -2.84686e-21)
(0.0437731 0.0109747 5.47214e-21)
(0.043151 0.011694 -3.10208e-21)
(0.0424641 0.0124457 -8.8183e-21)
(0.0416836 0.0131993 -2.6118e-21)
(0.0409135 0.0140699 0)
(0.038292 -0.00919814 0)
(0.0385713 -0.00921112 -2.03166e-22)
(0.0388504 -0.0092163 -2.99123e-23)
(0.0391323 -0.00921389 0)
(0.0394167 -0.00920248 0)
(0.0397031 -0.00918144 2.0933e-23)
(0.0399917 -0.00915061 -2.40041e-22)
(0.0402823 -0.00910986 4.33696e-22)
(0.0405744 -0.0090591 -2.24931e-22)
(0.0408678 -0.0089982 1.92006e-22)
(0.0411618 -0.00892702 0)
(0.0414561 -0.00884541 2.93678e-22)
(0.04175 -0.00875319 -3.97228e-22)
(0.0420434 -0.00865023 0)
(0.0423358 -0.00853641 0)
(0.0426268 -0.00841163 5.39809e-22)
(0.0429161 -0.00827578 1.01457e-22)
(0.0432032 -0.00812881 -1.18779e-21)
(0.0434877 -0.00797066 -1.31885e-21)
(0.0437693 -0.00780127 1.38311e-21)
(0.0440473 -0.00762063 7.30773e-22)
(0.0443215 -0.00742869 3.2976e-21)
(0.0445912 -0.00722546 5.10299e-23)
(0.0448559 -0.00701092 -9.8749e-22)
(0.0451152 -0.00678508 1.85819e-21)
(0.0453686 -0.00654798 -9.99833e-22)
(0.0456155 -0.00629966 2.04355e-21)
(0.0458555 -0.00604014 0)
(0.0460881 -0.00576948 0)
(0.0463127 -0.00548775 0)
(0.0465289 -0.00519501 -5.90671e-22)
(0.0467362 -0.00489134 -1.24173e-21)
(0.0469341 -0.0045768 1.29459e-21)
(0.0471222 -0.00425147 1.37559e-21)
(0.0472999 -0.00391538 -1.38488e-21)
(0.0474668 -0.00356858 0)
(0.0476223 -0.00321126 7.53745e-22)
(0.0477662 -0.00284312 -3.88844e-22)
(0.0478979 -0.00246444 0)
(0.0480165 -0.00207713 3.96398e-22)
(0.0481219 -0.00168012 -7.42002e-23)
(0.0482134 -0.00127313 4.95875e-23)
(0.0482905 -0.000856079 -1.94187e-22)
(0.0483524 -0.000428917 0)
(0.0483987 8.45392e-06 -8.1019e-22)
(0.0484286 0.000456164 8.02615e-22)
(0.0484414 0.000914372 0)
(0.0484363 0.00138327 -5.74222e-23)
(0.0484126 0.00186309 4.54507e-23)
(0.0483693 0.00235409 1.55952e-21)
(0.0483054 0.00285657 0)
(0.0482199 0.00337087 -1.0838e-22)
(0.0481113 0.00389742 -1.54859e-21)
(0.0479785 0.00443671 -4.85068e-21)
(0.0478198 0.00498935 -1.18349e-22)
(0.0476336 0.00555603 3.06658e-21)
(0.047418 0.00613747 0)
(0.047171 0.00673447 0)
(0.0468905 0.00734786 3.26452e-21)
(0.0465737 0.00797859 0)
(0.0462181 0.00862757 0)
(0.0458205 0.00929605 -1.26707e-22)
(0.0453773 0.00998518 -3.12282e-21)
(0.0448836 0.0106968 -6.36753e-21)
(0.0443337 0.0114328 6.37564e-21)
(0.043719 0.0121934 -5.20267e-22)
(0.0430417 0.0129885 2.87405e-21)
(0.0422808 0.0137868 3.1401e-21)
(0.0415447 0.0147037 0)
(0.0382405 -0.00970742 0)
(0.0385398 -0.00972079 2.08418e-22)
(0.0388389 -0.00972595 -3.62551e-22)
(0.0391405 -0.00972311 1.53572e-22)
(0.0394438 -0.00971075 0)
(0.0397483 -0.00968817 -1.61346e-22)
(0.040054 -0.00965515 4.71772e-22)
(0.0403609 -0.00961154 1.15335e-22)
(0.040669 -0.00955724 -1.03741e-21)
(0.040978 -0.00949211 1.83641e-22)
(0.0412877 -0.00941603 -3.52421e-22)
(0.0415976 -0.00932887 -4.08812e-22)
(0.0419072 -0.00923047 1.32899e-21)
(0.0422161 -0.00912074 -1.95053e-21)
(0.0425238 -0.00899956 1.0273e-21)
(0.0428299 -0.00886684 -6.80111e-22)
(0.043134 -0.00872249 2.58823e-21)
(0.0434355 -0.00856645 -6.08473e-22)
(0.043734 -0.00839868 8.38036e-22)
(0.0440292 -0.00821912 -7.37316e-22)
(0.0443204 -0.00802777 1.02916e-22)
(0.0446073 -0.0078246 -5.42404e-21)
(0.0448893 -0.00760964 -1.01453e-21)
(0.045166 -0.0073829 -9.79433e-23)
(0.0454369 -0.00714441 3.15177e-21)
(0.0457015 -0.00689422 -1.05897e-21)
(0.0459592 -0.00663239 2.34305e-21)
(0.0462096 -0.00635898 -3.59245e-21)
(0.0464521 -0.00607408 0)
(0.0466864 -0.00577776 -1.3128e-21)
(0.0469118 -0.00547012 1.3177e-21)
(0.0471279 -0.00515124 4.97755e-23)
(0.0473343 -0.00482123 -7.42909e-22)
(0.0475304 -0.00448016 -7.66827e-22)
(0.0477157 -0.0041281 2.33481e-21)
(0.0478899 -0.00376512 -1.555e-21)
(0.0480523 -0.00339142 1.23757e-21)
(0.0482027 -0.00300663 -1.66653e-21)
(0.0483406 -0.00261137 8.42953e-22)
(0.0484651 -0.0022072 -2.07155e-22)
(0.0485762 -0.00179309 0)
(0.0486731 -0.00136879 2.17436e-22)
(0.0487553 -0.000934223 -2.15187e-22)
(0.0488223 -0.00048932 -4.36954e-22)
(0.0488734 -3.39796e-05 1.30776e-21)
(0.0489081 0.000431944 -8.92275e-22)
(0.0489255 0.000908633 -8.67738e-22)
(0.0489251 0.00139631 0)
(0.0489059 0.00189524 -3.55076e-21)
(0.0488672 0.00240574 3.4811e-21)
(0.0488079 0.00292817 -1.67801e-21)
(0.048727 0.00346294 1.67131e-21)
(0.0486233 0.00401055 1.78471e-21)
(0.0484954 0.00457158 3.39579e-21)
(0.048342 0.00514669 3.33347e-21)
(0.0481613 0.00573664 0)
(0.0479516 0.00634225 -3.55329e-21)
(0.0477111 0.00696446 0)
(0.0474375 0.00760421 1.19027e-22)
(0.0471284 0.00826266 -3.27923e-21)
(0.0467813 0.00894087 3.40203e-21)
(0.046393 0.00964038 3.27698e-21)
(0.0459594 0.0103627 -3.5329e-21)
(0.045475 0.0111101 -1.27499e-22)
(0.0449342 0.0118844 1.3004e-22)
(0.0443323 0.0126867 1.01163e-20)
(0.0436735 0.0135242 3.5612e-21)
(0.0429494 0.0143714 3.42032e-21)
(0.0422482 0.0153378 -3.36482e-21)
(0.0381816 -0.0102497 0)
(0.0384997 -0.0102631 0)
(0.0388184 -0.0102679 -1.41596e-22)
(0.0391403 -0.0102642 1.98661e-22)
(0.039464 -0.0102505 -4.72167e-23)
(0.0397887 -0.0102261 0)
(0.0401142 -0.0101906 0)
(0.0404403 -0.0101439 2.36338e-22)
(0.0407669 -0.0100858 -5.99802e-22)
(0.0410939 -0.0100163 -1.79901e-22)
(0.0414209 -0.00993506 1.91284e-21)
(0.0417478 -0.00984207 -4.15732e-22)
(0.0420742 -0.00973716 5.3063e-22)
(0.0423995 -0.00962024 -1.06575e-21)
(0.0427235 -0.00949121 6.56813e-22)
(0.0430456 -0.00935 0)
(0.0433653 -0.00919654 0)
(0.0436822 -0.00903078 5.25242e-23)
(0.0439958 -0.0088527 -2.51237e-21)
(0.0443055 -0.00866226 8.57835e-22)
(0.044611 -0.00845947 -9.94783e-22)
(0.0449116 -0.00824433 9.62626e-22)
(0.0452069 -0.00801688 1.06211e-21)
(0.0454964 -0.00777716 -1.00823e-21)
(0.0457796 -0.00752522 -1.11615e-21)
(0.046056 -0.00726115 0)
(0.0463251 -0.00698501 0)
(0.0465864 -0.00669691 1.94834e-21)
(0.0468394 -0.00639695 0)
(0.0470836 -0.00608524 1.43522e-21)
(0.0473185 -0.0057619 -1.44011e-21)
(0.0475437 -0.00542704 -7.30199e-22)
(0.0477586 -0.00508078 7.54252e-22)
(0.0479629 -0.00472324 1.61257e-21)
(0.048156 -0.00435449 -8.02215e-22)
(0.0483375 -0.00397466 -8.63034e-22)
(0.0485068 -0.00358395 8.99139e-22)
(0.0486638 -0.00318188 0)
(0.0488079 -0.00276954 0)
(0.0489384 -0.002348 2.38969e-22)
(0.0490552 -0.00191629 0)
(0.0491576 -0.00147422 0)
(0.0492451 -0.0010217 -7.12041e-22)
(0.0493171 -0.000558669 9.50078e-22)
(0.0493732 -8.50031e-05 -4.85189e-22)
(0.0494127 0.000399457 9.10544e-22)
(0.049435 0.000894917 0)
(0.0494393 0.00140163 2.85957e-21)
(0.0494249 0.0019199 -5.12303e-23)
(0.0493909 0.00245009 0)
(0.0493365 0.00299262 -3.7554e-21)
(0.0492606 0.00354796 -5.92282e-23)
(0.0491621 0.00411668 -3.67416e-21)
(0.0490397 0.00469943 -1.92978e-21)
(0.0488921 0.00529694 -3.729e-21)
(0.0487177 0.00591005 3.70972e-21)
(0.0485149 0.00653968 3.58579e-21)
(0.0482818 0.00718688 0)
(0.0480164 0.00785273 -3.69847e-21)
(0.0477165 0.00853855 1.2339e-22)
(0.0473793 0.00924566 0)
(0.0470014 0.00997592 0)
(0.0465783 0.0107313 3.55694e-21)
(0.046105 0.0115142 0)
(0.0455783 0.0123265 0)
(0.0449988 0.0131695 -3.71712e-21)
(0.0443713 0.0140485 -3.41208e-21)
(0.0436955 0.0149469 -3.86609e-21)
(0.0430044 0.0159421 0)
(0.0381202 -0.0108282 0)
(0.0384565 -0.0108413 0)
(0.038794 -0.0108453 0)
(0.0391355 -0.0108404 -2.87099e-23)
(0.0394794 -0.010825 -1.61795e-22)
(0.0398248 -0.0107981 -1.3438e-22)
(0.0401711 -0.0107597 3.40644e-22)
(0.0405179 -0.0107094 -2.4165e-22)
(0.040865 -0.0106471 3.65607e-22)
(0.0412121 -0.0105727 7.97987e-22)
(0.0415587 -0.0104859 0)
(0.0419047 -0.0103867 0)
(0.0422496 -0.0102748 -5.98243e-23)
(0.042593 -0.0101502 1.91326e-21)
(0.0429346 -0.0100129 -2.89311e-21)
(0.0432739 -0.00986259 -1.24744e-22)
(0.0436104 -0.00969941 1.5895e-21)
(0.0439438 -0.00952328 8.44228e-22)
(0.0442733 -0.00933419 -8.7635e-23)
(0.0445987 -0.00913213 0)
(0.0449192 -0.00891712 2.11853e-21)
(0.0452345 -0.00868922 0)
(0.045544 -0.00844846 2.34245e-21)
(0.0458471 -0.00819492 -3.67865e-21)
(0.0461435 -0.00792868 3.83369e-21)
(0.0464324 -0.00764986 1.38697e-21)
(0.0467136 -0.00735855 -2.13213e-21)
(0.0469863 -0.00705489 2.18335e-21)
(0.0472503 -0.00673902 -1.4666e-21)
(0.0475049 -0.00641106 0)
(0.0477497 -0.00607118 -1.61853e-21)
(0.0479842 -0.00571951 -8.9936e-22)
(0.048208 -0.00535621 1.67661e-21)
(0.0484206 -0.00498142 -1.75298e-21)
(0.0486216 -0.00459525 9.10573e-22)
(0.0488105 -0.00419784 -9.16288e-22)
(0.0489869 -0.00378941 -4.60683e-22)
(0.0491506 -0.0033694 5.05817e-22)
(0.0493009 -0.00293942 2.43285e-22)
(0.0494374 -0.00249995 -7.35255e-22)
(0.0495599 -0.00205012 -6.4669e-23)
(0.0496677 -0.0015898 0)
(0.0497605 -0.0011189 2.4397e-22)
(0.0498376 -0.000637361 -4.89048e-22)
(0.0498987 -0.000145038 4.89837e-22)
(0.049943 0.000358244 0)
(0.0499701 0.000872716 0)
(0.0499792 0.00139866 1.05148e-21)
(0.0499697 0.00193642 -2.01552e-21)
(0.0499407 0.00248641 -4.118e-21)
(0.0498914 0.00304908 8.08276e-21)
(0.0498209 0.00362498 -2.07913e-21)
(0.049728 0.00421474 2.00837e-21)
(0.0496116 0.00481908 1.94678e-21)
(0.0494705 0.00543879 -4.02098e-21)
(0.0493032 0.00607482 3.99927e-21)
(0.0491081 0.00672815 0)
(0.0488835 0.00739996 -4.13515e-21)
(0.0486276 0.00809145 1.36756e-22)
(0.0483379 0.00880418 3.9824e-21)
(0.0480116 0.00953974 0)
(0.047645 0.0103004 0)
(0.0472343 0.0110883 0)
(0.0467766 0.0119058 8.15635e-21)
(0.0462734 0.0127546 4.1732e-21)
(0.0457276 0.0136361 3.87834e-21)
(0.0451408 0.0145574 -7.86176e-21)
(0.0445018 0.0155032 -3.16805e-22)
(0.0438009 0.0165595 4.10695e-21)
(0.0380582 -0.0114459 0)
(0.0384135 -0.0114586 1.09756e-22)
(0.0387701 -0.0114616 -1.04976e-22)
(0.039131 -0.0114551 -1.91791e-22)
(0.0394949 -0.0114374 3.34336e-22)
(0.0398607 -0.0114078 2.28295e-22)
(0.0402278 -0.0113658 3.00244e-22)
(0.0405957 -0.0113113 0)
(0.040964 -0.0112442 -8.15134e-22)
(0.0413322 -0.0111642 -9.46021e-22)
(0.0416998 -0.0110713 1.01117e-21)
(0.0420665 -0.0109652 -6.48047e-22)
(0.0424317 -0.0108457 7.79102e-22)
(0.0427949 -0.0107128 -5.62888e-22)
(0.0431558 -0.0105665 -3.29447e-21)
(0.043514 -0.0104065 -1.33175e-22)
(0.0438688 -0.0102329 -1.3152e-22)
(0.0442199 -0.0100457 1.91663e-21)
(0.0445667 -0.0098448 1.00685e-21)
(0.0449087 -0.00963033 2.2887e-21)
(0.0452454 -0.00940229 -2.18222e-21)
(0.0455763 -0.00916075 0)
(0.0459009 -0.00890581 1.06562e-22)
(0.0462185 -0.00863754 0)
(0.0465287 -0.00835609 -1.35382e-21)
(0.046831 -0.00806158 -1.40947e-21)
(0.0471248 -0.00775416 7.32279e-22)
(0.0474096 -0.007434 0)
(0.047685 -0.00710127 8.46823e-22)
(0.0479505 -0.00675614 1.70987e-21)
(0.0482055 -0.0063988 -1.71454e-21)
(0.0484497 -0.00602944 8.66495e-22)
(0.0486826 -0.00564823 -1.86956e-21)
(0.0489038 -0.00525534 3.75821e-21)
(0.0491129 -0.00485092 -9.66116e-22)
(0.0493094 -0.00443519 0)
(0.0494928 -0.00400828 -5.33264e-22)
(0.0496632 -0.00356968 3.51322e-23)
(0.0498198 -0.00312151 7.9642e-22)
(0.0499623 -0.00266351 -6.67119e-22)
(0.0500904 -0.00219503 1.29245e-22)
(0.0502036 -0.00171598 -4.11514e-22)
(0.0503016 -0.0012263 2.69101e-22)
(0.0503837 -0.000725887 0)
(0.0504497 -0.000214605 0)
(0.0504989 0.000307745 0)
(0.0505308 0.000841419 1.12431e-21)
(0.0505448 0.00138673 1.12418e-21)
(0.0505403 0.00194406 0)
(0.0505165 0.00251385 2.17176e-21)
(0.0504726 0.00309663 2.30289e-21)
(0.0504078 0.00369299 2.24082e-21)
(0.050321 0.00430361 0)
(0.0502112 0.00492929 0)
(0.0500772 0.0055709 -4.32719e-21)
(0.0499178 0.00622945 4.30277e-21)
(0.0497313 0.00690602 0)
(0.0495163 0.00760189 4.16307e-21)
(0.0492706 0.00831847 -4.15834e-21)
(0.048992 0.00905755 -4.44774e-21)
(0.0486774 0.00982102 4.30393e-21)
(0.0483242 0.0106114 -4.29354e-21)
(0.0479305 0.0114304 0)
(0.0474971 0.0122806 -4.16499e-21)
(0.0470285 0.0131631 1.62061e-22)
(0.0465228 0.0140818 -8.80468e-21)
(0.0459682 0.0150457 -8.78856e-21)
(0.0453302 0.0160351 8.42953e-21)
(0.0445619 0.0171371 -4.12836e-21)
(0.0379955 -0.0121064 4.72856e-23)
(0.0383713 -0.0121185 0)
(0.0387482 -0.0121202 -3.93495e-24)
(0.0391296 -0.0121118 3.42407e-22)
(0.0395141 -0.0120915 -8.00482e-22)
(0.0399007 -0.0120585 2.17405e-22)
(0.0402888 -0.0120125 -3.06763e-22)
(0.0406779 -0.0119532 9.03164e-22)
(0.0410676 -0.0118806 -4.46075e-22)
(0.0414573 -0.0117944 -5.21792e-22)
(0.0418466 -0.0116945 -6.74495e-22)
(0.0422347 -0.0115807 2.13785e-21)
(0.0426212 -0.0114529 -6.50245e-22)
(0.0430055 -0.0113109 2.64215e-21)
(0.0433871 -0.0111547 1.00782e-21)
(0.0437654 -0.0109841 1.42157e-22)
(0.0441399 -0.0107993 -2.01438e-21)
(0.0445102 -0.0106001 0)
(0.0448756 -0.0103865 0)
(0.0452355 -0.0101587 -1.29489e-21)
(0.0455896 -0.00991671 -1.2478e-21)
(0.0459372 -0.00966058 -2.79015e-21)
(0.0462778 -0.00939045 1.41616e-21)
(0.0466108 -0.00910646 3.033e-21)
(0.0469357 -0.00880877 -3.03094e-21)
(0.047252 -0.00849754 8.35603e-22)
(0.0475592 -0.00817298 8.65666e-22)
(0.0478567 -0.00783528 0)
(0.0481441 -0.00748466 -8.59169e-22)
(0.0484209 -0.00712134 -1.86386e-21)
(0.0486866 -0.00674554 -5.14269e-23)
(0.0489407 -0.0063575 1.92539e-21)
(0.049183 -0.00595744 -1.04013e-21)
(0.0494129 -0.00554556 0)
(0.0496301 -0.00512204 5.48414e-22)
(0.0498343 -0.00468717 -5.6255e-22)
(0.0500249 -0.00424097 5.39381e-22)
(0.050202 -0.0037832 -1.14272e-21)
(0.0503647 -0.00331618 0)
(0.0505132 -0.00283903 -1.49102e-22)
(0.0506469 -0.00235138 1.44928e-22)
(0.0507654 -0.00185315 -2.26483e-22)
(0.0508684 -0.00134429 8.74553e-22)
(0.0509556 -0.000824689 -1.75187e-21)
(0.0510264 -0.000294193 1.16096e-21)
(0.0510804 0.000247415 1.17355e-21)
(0.0511172 0.000800415 -1.08895e-21)
(0.0511362 0.00136515 2.41945e-21)
(0.0511368 0.00194204 -2.32572e-21)
(0.0511184 0.00253158 -5.80844e-21)
(0.0510802 0.00313432 6.29955e-23)
(0.0510214 0.00375093 -2.25695e-21)
(0.0509412 0.00438214 0)
(0.0508385 0.00502881 0)
(0.0507123 0.00569188 -4.64791e-21)
(0.0505614 0.00637241 6.86852e-21)
(0.0503843 0.00707164 -4.61585e-21)
(0.0501794 0.00779095 0)
(0.0499448 0.00853201 4.77742e-21)
(0.0496781 0.00929673 9.09737e-21)
(0.0493774 0.0100872 -4.45942e-21)
(0.0490422 0.0109055 -1.94927e-23)
(0.0486734 0.0117532 4.61974e-21)
(0.048274 0.0126327 -1.55591e-22)
(0.0478439 0.0135465 -9.27403e-21)
(0.0473674 0.0145015 9.08186e-21)
(0.0468128 0.0155067 4.4349e-21)
(0.0461271 0.0165354 0)
(0.0452869 0.0177077 0)
(0.0379318 -0.0128132 -4.83727e-23)
(0.0383297 -0.0128245 1.29455e-22)
(0.0387286 -0.0128246 -1.06362e-22)
(0.039132 -0.0128141 0)
(0.0395385 -0.0127909 -1.13247e-22)
(0.0399471 -0.0127541 -7.64779e-22)
(0.0403572 -0.0127035 5.27515e-22)
(0.0407684 -0.0126389 -1.35359e-21)
(0.0411801 -0.0125601 1.0741e-21)
(0.0415919 -0.012467 0)
(0.0420032 -0.0123594 2.9778e-22)
(0.0424133 -0.0122371 0)
(0.0428217 -0.0120999 1.00541e-21)
(0.0432278 -0.0119479 -2.73544e-21)
(0.0436308 -0.0117808 0)
(0.0440302 -0.0115987 0)
(0.0444255 -0.0114015 0)
(0.0448159 -0.0111892 -1.89891e-21)
(0.045201 -0.0109619 2.53882e-21)
(0.04558 -0.0107197 1.31682e-21)
(0.0459525 -0.0104626 0)
(0.0463179 -0.0101907 0)
(0.0466755 -0.00990429 0)
(0.0470248 -0.00960343 -4.18697e-21)
(0.0473653 -0.00928833 5.06137e-21)
(0.0476964 -0.00895923 -2.57702e-21)
(0.0480176 -0.00861637 -1.82595e-21)
(0.0483284 -0.00825998 1.91229e-21)
(0.0486283 -0.00789033 -1.91411e-21)
(0.0489168 -0.0075077 1.03976e-21)
(0.0491935 -0.00711236 -2.08843e-21)