/*--------------------------------*- C++ -*----------------------------------*\
| =========                 |                                                 |
| \\      /  F ield         | OpenFOAM: The Open Source CFD Toolbox           |
|  \\    /   O peration     | Version:  2312                                  |
|   \\  /    A nd           | Website:  www.openfoam.com                      |
|    \\/     M anipulation  |                                                 |
\*---------------------------------------------------------------------------*/
FoamFile
{
    version     2.0;
    format      ascii;
    arch        "LSB;label=32;scalar=64";
    class       volScalarField;
    location    "400";
    object      k;
}
// * * * * * * * * * * * * * * * * * * * * * * * * * * * * * * * * * * * * * //

dimensions      [0 2 -2 0 0 0 0];

internalField   nonuniform List<scalar> 
76025
(
4.95604e-06
4.95492e-06
4.95159e-06
4.94885e-06
4.94911e-06
4.95105e-06
4.94979e-06
4.95172e-06
4.94989e-06
4.94891e-06
4.95144e-06
4.95031e-06
4.95242e-06
4.95053e-06
4.95375e-06
4.95261e-06
4.95482e-06
4.95748e-06
4.96148e-06
4.96596e-06
4.97252e-06
4.98016e-06
4.98852e-06
4.999e-06
5.01364e-06
5.02538e-06
5.04624e-06
5.06223e-06
5.08534e-06
5.1066e-06
5.13321e-06
5.15652e-06
5.1898e-06
5.21919e-06
5.25429e-06
5.28831e-06
5.32675e-06
5.37148e-06
5.41537e-06
5.46155e-06
5.50889e-06
5.56219e-06
5.61954e-06
5.67711e-06
5.73693e-06
5.80043e-06
5.86795e-06
5.93964e-06
6.01814e-06
6.10229e-06
6.19896e-06
6.30882e-06
6.43692e-06
6.57829e-06
6.76642e-06
6.97419e-06
7.24531e-06
7.58035e-06
8.0142e-06
8.61244e-06
9.31889e-06
1.03372e-05
1.17127e-05
1.34929e-05
1.58005e-05
1.84756e-05
2.16093e-05
2.52151e-05
2.92757e-05
5.0491e-06
5.05209e-06
5.05383e-06
5.05756e-06
5.0572e-06
5.0584e-06
5.05866e-06
5.06042e-06
5.06173e-06
5.0625e-06
5.06418e-06
5.06563e-06
5.06842e-06
5.07047e-06
5.07448e-06
5.07705e-06
5.08155e-06
5.08592e-06
5.09205e-06
5.09842e-06
5.10656e-06
5.11545e-06
5.12601e-06
5.13756e-06
5.15215e-06
5.16667e-06
5.18471e-06
5.2037e-06
5.22548e-06
5.24917e-06
5.27558e-06
5.3025e-06
5.33294e-06
5.3646e-06
5.399e-06
5.43576e-06
5.47462e-06
5.51627e-06
5.55963e-06
5.60546e-06
5.65478e-06
5.70662e-06
5.7619e-06
5.82029e-06
5.8836e-06
5.95195e-06
6.02589e-06
6.10729e-06
6.19827e-06
6.30136e-06
6.41766e-06
6.553e-06
6.70897e-06
6.89606e-06
7.11921e-06
7.3957e-06
7.73937e-06
8.17494e-06
8.74782e-06
9.48778e-06
1.04833e-05
1.17909e-05
1.34708e-05
1.55562e-05
1.80774e-05
2.09883e-05
2.43855e-05
2.79745e-05
3.22526e-05
5.15355e-06
5.15867e-06
5.16291e-06
5.1678e-06
5.17149e-06
5.17505e-06
5.1781e-06
5.18141e-06
5.18492e-06
5.18828e-06
5.19185e-06
5.1954e-06
5.19966e-06
5.20394e-06
5.20935e-06
5.21475e-06
5.22112e-06
5.22783e-06
5.23558e-06
5.24401e-06
5.25362e-06
5.26417e-06
5.27615e-06
5.28932e-06
5.30444e-06
5.32077e-06
5.33903e-06
5.35899e-06
5.38111e-06
5.40518e-06
5.43164e-06
5.45987e-06
5.4904e-06
5.52314e-06
5.5584e-06
5.59622e-06
5.63672e-06
5.67995e-06
5.72597e-06
5.77503e-06
5.82773e-06
5.88438e-06
5.94534e-06
6.01127e-06
6.083e-06
6.1615e-06
6.24811e-06
6.34438e-06
6.45293e-06
6.57596e-06
6.71732e-06
6.88112e-06
7.0743e-06
7.3047e-06
7.58516e-06
7.93343e-06
8.3719e-06
8.93828e-06
9.67268e-06
1.06366e-05
1.18853e-05
1.34736e-05
1.54424e-05
1.78008e-05
2.05701e-05
2.36817e-05
2.72128e-05
3.08877e-05
3.52044e-05
5.28368e-06
5.28767e-06
5.29249e-06
5.29815e-06
5.30382e-06
5.30944e-06
5.31492e-06
5.32037e-06
5.32597e-06
5.33164e-06
5.33754e-06
5.34351e-06
5.34988e-06
5.35647e-06
5.3637e-06
5.37139e-06
5.37978e-06
5.38878e-06
5.39858e-06
5.40918e-06
5.42076e-06
5.43335e-06
5.44718e-06
5.46227e-06
5.4789e-06
5.49702e-06
5.51687e-06
5.53845e-06
5.56199e-06
5.58754e-06
5.61527e-06
5.64519e-06
5.67747e-06
5.71228e-06
5.74981e-06
5.79019e-06
5.83365e-06
5.8804e-06
5.93066e-06
5.98479e-06
6.04331e-06
6.10679e-06
6.17584e-06
6.25129e-06
6.33405e-06
6.42552e-06
6.52728e-06
6.64151e-06
6.77093e-06
6.91915e-06
7.09069e-06
7.29195e-06
7.53156e-06
7.82165e-06
8.1795e-06
8.62868e-06
9.20162e-06
9.93951e-06
1.08922e-05
1.21133e-05
1.36475e-05
1.5532e-05
1.77785e-05
2.03848e-05
2.33481e-05
2.66011e-05
3.02204e-05
3.39091e-05
3.82e-05
5.45198e-06
5.45162e-06
5.45332e-06
5.45745e-06
5.46299e-06
5.46937e-06
5.47627e-06
5.48349e-06
5.49102e-06
5.4988e-06
5.50689e-06
5.51524e-06
5.52395e-06
5.533e-06
5.54253e-06
5.55259e-06
5.56328e-06
5.57465e-06
5.58681e-06
5.59981e-06
5.61376e-06
5.62876e-06
5.64494e-06
5.66242e-06
5.68134e-06
5.70184e-06
5.72399e-06
5.7479e-06
5.77376e-06
5.80171e-06
5.83192e-06
5.86453e-06
5.89972e-06
5.93773e-06
5.97879e-06
6.02309e-06
6.07093e-06
6.12268e-06
6.1787e-06
6.23948e-06
6.30564e-06
6.37791e-06
6.45712e-06
6.54439e-06
6.64088e-06
6.74831e-06
6.86887e-06
7.00535e-06
7.16145e-06
7.34204e-06
7.55367e-06
7.80529e-06
8.10929e-06
8.48274e-06
8.9488e-06
9.53824e-06
1.02891e-05
1.12461e-05
1.24546e-05
1.39561e-05
1.57766e-05
1.7933e-05
2.04171e-05
2.32219e-05
2.63288e-05
2.96811e-05
3.33363e-05
3.69983e-05
4.11917e-05
5.65925e-06
5.65684e-06
5.65887e-06
5.65769e-06
5.65997e-06
5.66465e-06
5.67104e-06
5.67867e-06
5.68722e-06
5.69648e-06
5.70635e-06
5.71677e-06
5.72772e-06
5.73918e-06
5.7512e-06
5.76381e-06
5.77709e-06
5.7911e-06
5.80593e-06
5.82165e-06
5.83837e-06
5.85618e-06
5.87521e-06
5.89558e-06
5.91744e-06
5.94091e-06
5.96606e-06
5.99305e-06
6.02207e-06
6.05333e-06
6.087e-06
6.12333e-06
6.16252e-06
6.2049e-06
6.25074e-06
6.30031e-06
6.35404e-06
6.4124e-06
6.47593e-06
6.54525e-06
6.62117e-06
6.70463e-06
6.79674e-06
6.89901e-06
7.01301e-06
7.14105e-06
7.28611e-06
7.45213e-06
7.6443e-06
7.86961e-06
8.13749e-06
8.46072e-06
8.85656e-06
9.34779e-06
9.96352e-06
1.0739e-05
1.17135e-05
1.29265e-05
1.44114e-05
1.61925e-05
1.82772e-05
2.06685e-05
2.33454e-05
2.63024e-05
2.95051e-05
3.2913e-05
3.65511e-05
4.01379e-05
4.41506e-05
5.88221e-06
5.88473e-06
5.88702e-06
5.88952e-06
5.89317e-06
5.89829e-06
5.9049e-06
5.91289e-06
5.9221e-06
5.93237e-06
5.94359e-06
5.95565e-06
5.96852e-06
5.98216e-06
5.99656e-06
6.01173e-06
6.02772e-06
6.04456e-06
6.06233e-06
6.0811e-06
6.10096e-06
6.12201e-06
6.14439e-06
6.16819e-06
6.19362e-06
6.22067e-06
6.24952e-06
6.28037e-06
6.31343e-06
6.34892e-06
6.38711e-06
6.42826e-06
6.47267e-06
6.52073e-06
6.57279e-06
6.62924e-06
6.69064e-06
6.75762e-06
6.83089e-06
6.91129e-06
6.9999e-06
7.09797e-06
7.20706e-06
7.32915e-06
7.46661e-06
7.62264e-06
7.80154e-06
8.00899e-06
8.25254e-06
8.54225e-06
8.89147e-06
9.31771e-06
9.84335e-06
1.04959e-05
1.13075e-05
1.23124e-05
1.35436e-05
1.50287e-05
1.67855e-05
1.88218e-05
2.11332e-05
2.37135e-05
2.65362e-05
2.95989e-05
3.28504e-05
3.62702e-05
3.98303e-05
4.32882e-05
4.6937e-05
6.15449e-06
6.15886e-06
6.16291e-06
6.16748e-06
6.17272e-06
6.179e-06
6.18647e-06
6.19519e-06
6.20514e-06
6.21627e-06
6.22855e-06
6.24191e-06
6.25634e-06
6.27181e-06
6.2883e-06
6.30583e-06
6.3244e-06
6.34406e-06
6.36486e-06
6.38685e-06
6.41012e-06
6.43479e-06
6.46092e-06
6.48876e-06
6.51825e-06
6.54956e-06
6.58289e-06
6.61846e-06
6.65652e-06
6.69735e-06
6.74125e-06
6.78858e-06
6.83972e-06
6.89515e-06
6.95533e-06
7.02081e-06
7.09233e-06
7.17071e-06
7.25694e-06
7.35218e-06
7.4579e-06
7.57586e-06
7.70828e-06
7.85802e-06
8.02859e-06
8.22469e-06
8.45264e-06
8.7207e-06
9.03966e-06
9.42349e-06
9.88988e-06
1.04606e-05
1.11614e-05
1.20208e-05
1.30681e-05
1.43301e-05
1.58283e-05
1.75759e-05
1.95777e-05
2.18302e-05
2.4323e-05
2.70448e-05
2.99679e-05
3.30904e-05
3.63443e-05
3.97251e-05
4.31351e-05
4.63669e-05
4.93245e-05
6.48702e-06
6.49298e-06
6.49892e-06
6.50543e-06
6.51247e-06
6.52021e-06
6.52886e-06
6.53856e-06
6.5494e-06
6.56142e-06
6.57467e-06
6.58915e-06
6.6049e-06
6.62191e-06
6.64022e-06
6.65984e-06
6.68079e-06
6.70313e-06
6.72689e-06
6.75215e-06
6.77899e-06
6.80749e-06
6.83785e-06
6.87003e-06
6.90416e-06
6.94045e-06
6.97911e-06
7.02041e-06
7.06466e-06
7.11217e-06
7.16336e-06
7.21864e-06
7.27854e-06
7.34368e-06
7.41464e-06
7.49223e-06
7.57744e-06
7.67141e-06
7.77551e-06
7.89144e-06
8.02126e-06
8.16764e-06
8.33379e-06
8.524e-06
8.74347e-06
8.99918e-06
9.30022e-06
9.65813e-06
1.00873e-05
1.06055e-05
1.12333e-05
1.19942e-05
1.29128e-05
1.40132e-05
1.53164e-05
1.68383e-05
1.8588e-05
2.05676e-05
2.27734e-05
2.51961e-05
2.78236e-05
3.06404e-05
3.36201e-05
3.67544e-05
3.99597e-05
4.32341e-05
4.6396e-05
4.91777e-05
5.09385e-05
6.89544e-06
6.90306e-06
6.91085e-06
6.9193e-06
6.92826e-06
6.9378e-06
6.94808e-06
6.95926e-06
6.97144e-06
6.98474e-06
6.99926e-06
7.01507e-06
7.03224e-06
7.05086e-06
7.07097e-06
7.09265e-06
7.11596e-06
7.14096e-06
7.16773e-06
7.19638e-06
7.22695e-06
7.2597e-06
7.29451e-06
7.33155e-06
7.37101e-06
7.41313e-06
7.4582e-06
7.50653e-06
7.55849e-06
7.61451e-06
7.67511e-06
7.74084e-06
7.81243e-06
7.89067e-06
7.97639e-06
8.07078e-06
8.17522e-06
8.29136e-06
8.42123e-06
8.56736e-06
8.73285e-06
8.92166e-06
9.13868e-06
9.3901e-06
9.68367e-06
1.00288e-05
1.04378e-05
1.09254e-05
1.15084e-05
1.2206e-05
1.30386e-05
1.40267e-05
1.5189e-05
1.65412e-05
1.80942e-05
1.98536e-05
2.18199e-05
2.39885e-05
2.63518e-05
2.88975e-05
3.16137e-05
3.44793e-05
3.74696e-05
4.05596e-05
4.36504e-05
4.67242e-05
4.94564e-05
5.12677e-05
5.16472e-05
7.40098e-06
7.41048e-06
7.42027e-06
7.43085e-06
7.44197e-06
7.45364e-06
7.46601e-06
7.47921e-06
7.49336e-06
7.50858e-06
7.525e-06
7.54272e-06
7.56189e-06
7.58261e-06
7.605e-06
7.62917e-06
7.65524e-06
7.68333e-06
7.71357e-06
7.74608e-06
7.78106e-06
7.81844e-06
7.85842e-06
7.90123e-06
7.94714e-06
7.99646e-06
8.04956e-06
8.10686e-06
8.16886e-06
8.23615e-06
8.30942e-06
8.38945e-06
8.47728e-06
8.574e-06
8.68091e-06
8.79976e-06
8.93259e-06
9.0819e-06
9.25077e-06
9.44298e-06
9.66323e-06
9.91724e-06
1.02121e-05
1.05563e-05
1.09601e-05
1.14351e-05
1.19955e-05
1.2657e-05
1.34365e-05
1.4351e-05
1.54163e-05
1.66461e-05
1.80515e-05
1.96394e-05
2.14127e-05
2.33704e-05
2.55079e-05
2.78177e-05
3.02903e-05
3.2912e-05
3.56697e-05
3.85342e-05
4.14806e-05
4.44506e-05
4.73318e-05
5.00646e-05
5.17276e-05
5.21959e-05
5.19576e-05
8.03321e-06
8.04496e-06
8.05707e-06
8.07011e-06
8.08375e-06
8.09799e-06
8.11297e-06
8.12881e-06
8.14564e-06
8.16357e-06
8.18275e-06
8.20331e-06
8.22541e-06
8.24921e-06
8.27487e-06
8.30255e-06
8.33246e-06
8.36472e-06
8.39962e-06
8.43718e-06
8.47753e-06
8.52093e-06
8.56768e-06
8.6181e-06
8.67259e-06
8.73159e-06
8.79563e-06
8.86532e-06
8.94139e-06
9.02468e-06
9.11622e-06
9.21721e-06
9.32914e-06
9.45369e-06
9.59291e-06
9.74944e-06
9.92636e-06
1.01274e-05
1.03572e-05
1.06211e-05
1.09258e-05
1.12788e-05
1.16892e-05
1.21673e-05
1.27246e-05
1.33733e-05
1.41269e-05
1.49976e-05
1.60002e-05
1.71464e-05
1.84451e-05
1.99033e-05
2.15254e-05
2.33123e-05
2.52622e-05
2.737e-05
2.96292e-05
3.20304e-05
3.4563e-05
3.72111e-05
3.99572e-05
4.27614e-05
4.55848e-05
4.8327e-05
5.08566e-05
5.24733e-05
5.29335e-05
5.2692e-05
5.12899e-05
8.83392e-06
8.8485e-06
8.86351e-06
8.87958e-06
8.89635e-06
8.9138e-06
8.9321e-06
8.95138e-06
8.97179e-06
8.99346e-06
9.01654e-06
9.0412e-06
9.06763e-06
9.09602e-06
9.1266e-06
9.15957e-06
9.19523e-06
9.23371e-06
9.27512e-06
9.31979e-06
9.36808e-06
9.42039e-06
9.47715e-06
9.53888e-06
9.60618e-06
9.67973e-06
9.76033e-06
9.84895e-06
9.94668e-06
1.00549e-05
1.01751e-05
1.03092e-05
1.04594e-05
1.06284e-05
1.08193e-05
1.10359e-05
1.12826e-05
1.15647e-05
1.18882e-05
1.22602e-05
1.26884e-05
1.31818e-05
1.37498e-05
1.44026e-05
1.51507e-05
1.60044e-05
1.69736e-05
1.80672e-05
1.92928e-05
2.06565e-05
2.21613e-05
2.38116e-05
2.56073e-05
2.7545e-05
2.96201e-05
3.18253e-05
3.41535e-05
3.6593e-05
3.91328e-05
4.17488e-05
4.44184e-05
4.70812e-05
4.96463e-05
5.20473e-05
5.35443e-05
5.38256e-05
5.33405e-05
5.24115e-05
4.82328e-05
9.86417e-06
9.8826e-06
9.90154e-06
9.9217e-06
9.94267e-06
9.96448e-06
9.98732e-06
1.00114e-05
1.00368e-05
1.00639e-05
1.00927e-05
1.01234e-05
1.01565e-05
1.01919e-05
1.02303e-05
1.02714e-05
1.03158e-05
1.03636e-05
1.04155e-05
1.04718e-05
1.05332e-05
1.06001e-05
1.06734e-05
1.07539e-05
1.08425e-05
1.09402e-05
1.10484e-05
1.11686e-05
1.13024e-05
1.1452e-05
1.16197e-05
1.18084e-05
1.20211e-05
1.22617e-05
1.25344e-05
1.28442e-05
1.31966e-05
1.35977e-05
1.40544e-05
1.45739e-05
1.5164e-05
1.58327e-05
1.65882e-05
1.74385e-05
1.8391e-05
1.94527e-05
2.06295e-05
2.19261e-05
2.33462e-05
2.48915e-05
2.65627e-05
2.83581e-05
3.02752e-05
3.23074e-05
3.44504e-05
3.6695e-05
3.90352e-05
4.1453e-05
4.39387e-05
4.6445e-05
4.89551e-05
5.13341e-05
5.34452e-05
5.48095e-05
5.47639e-05
5.44533e-05
5.29063e-05
4.99819e-05
4.06384e-05
1.12181e-05
1.12424e-05
1.12673e-05
1.12936e-05
1.1321e-05
1.13495e-05
1.13794e-05
1.14109e-05
1.14443e-05
1.14799e-05
1.1518e-05
1.15589e-05
1.16026e-05
1.16494e-05
1.16999e-05
1.17546e-05
1.18138e-05
1.18784e-05
1.19488e-05
1.20259e-05
1.21105e-05
1.22036e-05
1.23064e-05
1.242e-05
1.2546e-05
1.2686e-05
1.2842e-05
1.3016e-05
1.32107e-05
1.34289e-05
1.36736e-05
1.39486e-05
1.42577e-05
1.46053e-05
1.49963e-05
1.54359e-05
1.59295e-05
1.6483e-05
1.71025e-05
1.7794e-05
1.85637e-05
1.94176e-05
2.03611e-05
2.13995e-05
2.25375e-05
2.37787e-05
2.51261e-05
2.65818e-05
2.81466e-05
2.982e-05
3.16005e-05
3.34841e-05
3.54666e-05
3.75395e-05
3.96926e-05
4.19126e-05
4.42003e-05
4.65254e-05
4.88764e-05
5.11629e-05
5.33927e-05
5.52191e-05
5.61271e-05
5.61018e-05
5.52564e-05
5.38312e-05
4.9831e-05
4.28377e-05
3.37199e-05
1.30511e-05
1.30855e-05
1.31209e-05
1.31581e-05
1.31969e-05
1.32373e-05
1.32798e-05
1.33248e-05
1.33724e-05
1.34229e-05
1.34769e-05
1.35349e-05
1.35974e-05
1.36651e-05
1.37386e-05
1.38187e-05
1.39061e-05
1.40017e-05
1.41066e-05
1.4222e-05
1.43491e-05
1.44893e-05
1.46442e-05
1.48156e-05
1.50055e-05
1.5216e-05
1.54496e-05
1.57088e-05
1.59966e-05
1.63162e-05
1.66709e-05
1.70644e-05
1.75004e-05
1.79831e-05
1.85168e-05
1.91057e-05
1.97545e-05
2.04675e-05
2.12494e-05
2.21044e-05
2.30367e-05
2.40503e-05
2.51488e-05
2.63351e-05
2.7612e-05
2.89812e-05
3.04439e-05
3.20003e-05
3.36494e-05
3.53889e-05
3.72162e-05
3.91238e-05
4.11071e-05
4.31525e-05
4.52478e-05
4.73748e-05
4.95321e-05
5.16742e-05
5.3762e-05
5.56852e-05
5.71715e-05
5.75682e-05
5.72117e-05
5.63813e-05
5.42625e-05
4.97967e-05
4.18119e-05
3.39989e-05
2.7025e-05
1.56408e-05
1.56952e-05
1.57508e-05
1.58089e-05
1.58692e-05
1.59322e-05
1.59984e-05
1.60686e-05
1.61433e-05
1.62231e-05
1.63088e-05
1.6401e-05
1.65007e-05
1.66086e-05
1.67257e-05
1.68531e-05
1.69918e-05
1.7143e-05
1.73081e-05
1.74885e-05
1.76856e-05
1.79011e-05
1.81368e-05
1.83947e-05
1.86766e-05
1.89849e-05
1.93218e-05
1.96898e-05
2.00915e-05
2.05297e-05
2.10072e-05
2.15269e-05
2.2092e-05
2.27056e-05
2.3371e-05
2.40917e-05
2.48708e-05
2.57119e-05
2.6618e-05
2.75924e-05
2.86381e-05
2.97575e-05
3.09531e-05
3.22267e-05
3.35795e-05
3.50121e-05
3.65242e-05
3.81145e-05
3.97805e-05
4.15177e-05
4.33225e-05
4.51821e-05
4.70932e-05
4.90323e-05
5.09853e-05
5.29355e-05
5.48486e-05
5.66776e-05
5.82734e-05
5.90921e-05
5.9001e-05
5.85136e-05
5.71777e-05
5.40887e-05
4.92339e-05
4.09626e-05
3.29013e-05
2.65012e-05
2.29748e-05
1.95225e-05
1.96163e-05
1.97128e-05
1.98132e-05
1.99174e-05
2.00258e-05
2.01395e-05
2.0259e-05
2.03853e-05
2.05191e-05
2.06613e-05
2.08128e-05
2.09744e-05
2.11472e-05
2.13321e-05
2.15302e-05
2.17427e-05
2.19706e-05
2.22152e-05
2.24778e-05
2.27597e-05
2.30625e-05
2.33875e-05
2.37364e-05
2.41109e-05
2.45127e-05
2.49437e-05
2.54059e-05
2.59014e-05
2.64323e-05
2.70011e-05
2.761e-05
2.82616e-05
2.89586e-05
2.97036e-05
3.04994e-05
3.13488e-05
3.22544e-05
3.32189e-05
3.42446e-05
3.53338e-05
3.64884e-05
3.77096e-05
3.89983e-05
4.03547e-05
4.17779e-05
4.32662e-05
4.4817e-05
4.64249e-05
4.80832e-05
4.9788e-05
5.15149e-05
5.32675e-05
5.50039e-05
5.671e-05
5.83661e-05
5.98423e-05
6.08476e-05
6.08881e-05
6.05834e-05
5.9569e-05
5.77065e-05
5.35354e-05
4.76762e-05
3.96234e-05
3.15152e-05
2.55184e-05
2.19515e-05
2.16276e-05
2.5775e-05
2.59314e-05
2.60901e-05
2.62525e-05
2.64182e-05
2.6588e-05
2.67627e-05
2.69431e-05
2.713e-05
2.73242e-05
2.75265e-05
2.77377e-05
2.79586e-05
2.81901e-05
2.84329e-05
2.86881e-05
2.89565e-05
2.92391e-05
2.95369e-05
2.9851e-05
3.01825e-05
3.05326e-05
3.09027e-05
3.12939e-05
3.17079e-05
3.21461e-05
3.26102e-05
3.3102e-05
3.36234e-05
3.41765e-05
3.47633e-05
3.5386e-05
3.60472e-05
3.67491e-05
3.74944e-05
3.82856e-05
3.91249e-05
4.00148e-05
4.09575e-05
4.19547e-05
4.30079e-05
4.41184e-05
4.52864e-05
4.65117e-05
4.77926e-05
4.9127e-05
5.05118e-05
5.19419e-05
5.34069e-05
5.48993e-05
5.64144e-05
5.79005e-05
5.93902e-05
6.08038e-05
6.21122e-05
6.30327e-05
6.30782e-05
6.27493e-05
6.18891e-05
6.04393e-05
5.7353e-05
5.2469e-05
4.54839e-05
3.70954e-05
2.94752e-05
2.43217e-05
2.03341e-05
2.04762e-05
2.07385e-05
3.57419e-05
3.59302e-05
3.61201e-05
3.6311e-05
3.65009e-05
3.66908e-05
3.6882e-05
3.70753e-05
3.72717e-05
3.74719e-05
3.76769e-05
3.78873e-05
3.81038e-05
3.8327e-05
3.85578e-05
3.87971e-05
3.90456e-05
3.93044e-05
3.95744e-05
3.98568e-05
4.01527e-05
4.04634e-05
4.07901e-05
4.11342e-05
4.14971e-05
4.18805e-05
4.22859e-05
4.27153e-05
4.31706e-05
4.3654e-05
4.41675e-05
4.47134e-05
4.52942e-05
4.5912e-05
4.65694e-05
4.72686e-05
4.80117e-05
4.88006e-05
4.96369e-05
5.05216e-05
5.14557e-05
5.24394e-05
5.34715e-05
5.45493e-05
5.567e-05
5.68295e-05
5.80241e-05
5.92417e-05
6.04633e-05
6.16908e-05
6.29025e-05
6.39908e-05
6.5109e-05
6.56542e-05
6.55641e-05
6.51857e-05
6.42896e-05
6.28152e-05
6.03286e-05
5.61334e-05
5.00379e-05
4.24568e-05
3.38204e-05
2.62624e-05
2.22136e-05
1.90191e-05
1.85722e-05
1.76791e-05
1.64853e-05
4.98383e-05
4.99498e-05
5.00634e-05
5.01788e-05
5.02944e-05
5.041e-05
5.05257e-05
5.06418e-05
5.07584e-05
5.0876e-05
5.09949e-05
5.11157e-05
5.12365e-05
5.13587e-05
5.14837e-05
5.16124e-05
5.17462e-05
5.18863e-05
5.20337e-05
5.21899e-05
5.2356e-05
5.25333e-05
5.27233e-05
5.29269e-05
5.31456e-05
5.33813e-05
5.3636e-05
5.39116e-05
5.42104e-05
5.45342e-05
5.48858e-05
5.5267e-05
5.56804e-05
5.61281e-05
5.66124e-05
5.71353e-05
5.76985e-05
5.83027e-05
5.89489e-05
5.96375e-05
6.03686e-05
6.11416e-05
6.19515e-05
6.27897e-05
6.36586e-05
6.45496e-05
6.54612e-05
6.63509e-05
6.72077e-05
6.8064e-05
6.8668e-05
6.86737e-05
6.84012e-05
6.78088e-05
6.67295e-05
6.52175e-05
6.27015e-05
5.88278e-05
5.33818e-05
4.61279e-05
3.80441e-05
2.96612e-05
2.2775e-05
1.85707e-05
1.67238e-05
1.63887e-05
1.51674e-05
1.2807e-05
1.16833e-05
6.72222e-05
6.71642e-05
6.71081e-05
6.70532e-05
6.69981e-05
6.69421e-05
6.68855e-05
6.68278e-05
6.67696e-05
6.67103e-05
6.66509e-05
6.6591e-05
6.65313e-05
6.64718e-05
6.64134e-05
6.63566e-05
6.63021e-05
6.62511e-05
6.62044e-05
6.6163e-05
6.61281e-05
6.61004e-05
6.60811e-05
6.60674e-05
6.60658e-05
6.60757e-05
6.61047e-05
6.61483e-05
6.62162e-05
6.63022e-05
6.64179e-05
6.65567e-05
6.6727e-05
6.69291e-05
6.71651e-05
6.7436e-05
6.77419e-05
6.80808e-05
6.84547e-05
6.88644e-05
6.93099e-05
6.9787e-05
7.02773e-05
7.07615e-05
7.12911e-05
7.18141e-05
7.2346e-05
7.25635e-05
7.24476e-05
7.21931e-05
7.14494e-05
7.04784e-05
6.91947e-05
6.73793e-05
6.46131e-05
6.06941e-05
5.52352e-05
4.84934e-05
4.03904e-05
3.22548e-05
2.46251e-05
1.84939e-05
1.49012e-05
1.33358e-05
1.22819e-05
9.84004e-06
8.19119e-06
8.2267e-06
9.39694e-06
8.64148e-05
8.61444e-05
8.5869e-05
8.55912e-05
8.53149e-05
8.50287e-05
8.47523e-05
8.44582e-05
8.41793e-05
8.38789e-05
8.35957e-05
8.32917e-05
8.30028e-05
8.26989e-05
8.24029e-05
8.21012e-05
8.17999e-05
8.14993e-05
8.11995e-05
8.08996e-05
8.06022e-05
8.03043e-05
8.00213e-05
7.97208e-05
7.94663e-05
7.91706e-05
7.895e-05
7.86704e-05
7.84876e-05
7.8236e-05
7.80978e-05
7.78983e-05
7.77866e-05
7.76828e-05
7.76116e-05
7.75644e-05
7.75377e-05
7.75208e-05
7.75384e-05
7.75922e-05
7.76729e-05
7.77632e-05
7.77841e-05
7.77008e-05
7.75364e-05
7.70711e-05
7.6446e-05
7.55266e-05
7.44574e-05
7.31215e-05
7.14278e-05
6.90302e-05
6.57394e-05
6.13577e-05
5.56971e-05
4.88738e-05
4.10726e-05
3.29233e-05
2.53177e-05
1.87143e-05
1.38473e-05
1.07206e-05
9.30772e-06
7.24559e-06
5.98626e-06
5.64809e-06
6.02415e-06
7.1318e-06
9.87021e-06
0.000105446
0.000104941
0.000104436
0.00010393
0.000103421
0.000102907
0.000102389
0.000101865
0.000101336
0.000100801
0.000100262
9.97164e-05
9.9167e-05
9.86117e-05
9.80522e-05
9.74882e-05
9.69203e-05
9.63463e-05
9.57665e-05
9.51823e-05
9.45953e-05
9.40067e-05
9.3419e-05
9.2831e-05
9.22485e-05
9.16673e-05
9.1096e-05
9.05279e-05
8.99745e-05
8.94293e-05
8.89052e-05
8.83954e-05
8.79076e-05
8.744e-05
8.6993e-05
8.65677e-05
8.61374e-05
8.56861e-05
8.51864e-05
8.46081e-05
8.39347e-05
8.31464e-05
8.21646e-05
8.11077e-05
7.99478e-05
7.86141e-05
7.70501e-05
7.51072e-05
7.26252e-05
6.93849e-05
6.53121e-05
6.01653e-05
5.40598e-05
4.70509e-05
3.93668e-05
3.16393e-05
2.40857e-05
1.76423e-05
1.23597e-05
8.77796e-06
6.46842e-06
4.93274e-06
4.06789e-06
3.6946e-06
3.92779e-06
4.4425e-06
5.32544e-06
7.25517e-06
1.06243e-05
0.000121876
0.00012118
0.00012048
0.000119775
0.000119065
0.000118346
0.000117619
0.000116884
0.000116139
0.000115385
0.000114621
0.000113848
0.000113064
0.000112266
0.000111455
0.000110633
0.000109799
0.000108956
0.000108102
0.00010724
0.00010637
0.000105493
0.00010461
0.00010372
0.000102825
0.000101926
0.000101022
0.000100116
9.92114e-05
9.83026e-05
9.73845e-05
9.64501e-05
9.54916e-05
9.44985e-05
9.34605e-05
9.23504e-05
9.11876e-05
8.99806e-05
8.87111e-05
8.73504e-05
8.58737e-05
8.424e-05
8.24173e-05
8.03298e-05
7.78229e-05
7.48542e-05
7.12601e-05
6.69261e-05
6.18527e-05
5.59457e-05
4.93788e-05
4.22635e-05
3.50746e-05
2.78321e-05
2.08762e-05
1.48423e-05
1.02022e-05
7.06122e-06
4.92241e-06
3.55135e-06
2.72754e-06
2.30959e-06
2.34127e-06
2.59949e-06
3.5191e-06
3.91746e-06
4.78867e-06
6.98043e-06
1.04366e-05
0.0001324
0.000131565
0.000130726
0.00012988
0.000129021
0.000128147
0.000127258
0.000126354
0.000125434
0.000124499
0.000123548
0.000122582
0.000121599
0.000120599
0.000119583
0.000118549
0.000117498
0.000116429
0.000115342
0.000114238
0.000113117
0.000111977
0.000110819
0.000109643
0.000108448
0.000107237
0.000106007
0.000104746
0.000103445
0.000102102
0.000100712
9.92661e-05
9.77548e-05
9.61641e-05
9.44758e-05
9.2673e-05
9.07251e-05
8.85816e-05
8.6219e-05
8.35813e-05
8.06338e-05
7.73236e-05
7.35645e-05
6.93459e-05
6.45599e-05
5.92618e-05
5.34402e-05
4.72004e-05
4.07918e-05
3.43791e-05
2.78318e-05
2.18141e-05
1.58291e-05
1.11105e-05
7.76346e-06
5.38734e-06
3.71065e-06
2.54146e-06
1.758e-06
1.34468e-06
1.24959e-06
1.36844e-06
1.79429e-06
1.8783e-06
2.00234e-06
2.07057e-06
2.97248e-06
4.99836e-06
7.99263e-06
0.000129291
0.000128431
0.000127553
0.000126659
0.000125749
0.000124821
0.000123876
0.000122912
0.000121928
0.000120926
0.000119904
0.000118861
0.000117797
0.000116711
0.000115602
0.00011447
0.000113312
0.000112129
0.000110919
0.00010968
0.000108412
0.000107112
0.000105785
0.000104423
0.000103035
0.000101601
0.000100085
9.84787e-05
9.67617e-05
9.49098e-05
9.2895e-05
9.06879e-05
8.82591e-05
8.55757e-05
8.26287e-05
7.9378e-05
7.58252e-05
7.19529e-05
6.78344e-05
6.34674e-05
5.89067e-05
5.4233e-05
4.9409e-05
4.46249e-05
3.96049e-05
3.45229e-05
2.93669e-05
2.43937e-05
1.96182e-05
1.47168e-05
1.05794e-05
7.43376e-06
5.13847e-06
3.53983e-06
2.41231e-06
1.58238e-06
1.01644e-06
6.87098e-07
5.06645e-07
5.43416e-07
7.63386e-07
9.15384e-07
1.00749e-06
9.68095e-07
8.69315e-07
7.34303e-07
9.9956e-07
1.99012e-06
3.98607e-06
0.000101952
0.00010111
0.000100241
9.93532e-05
9.84402e-05
9.7504e-05
9.65467e-05
9.55686e-05
9.45692e-05
9.35472e-05
9.25024e-05
9.14327e-05
9.03385e-05
8.92172e-05
8.80682e-05
8.68916e-05
8.56802e-05
8.44441e-05
8.31626e-05
8.18584e-05
8.05075e-05
7.91209e-05
7.76976e-05
7.62217e-05
7.46593e-05
7.30103e-05
7.12939e-05
6.95075e-05
6.76487e-05
6.57204e-05
6.37233e-05
6.16622e-05
5.95419e-05
5.7361e-05
5.51161e-05
5.27994e-05
5.04249e-05
4.79408e-05
4.53207e-05
4.25072e-05
3.94476e-05
3.60304e-05
3.228e-05
2.8013e-05
2.35893e-05
1.90866e-05
1.4628e-05
1.02539e-05
6.71592e-06
4.30763e-06
2.73431e-06
1.73547e-06
1.12874e-06
7.20747e-07
4.36448e-07
2.45027e-07
1.68883e-07
1.49086e-07
1.65176e-07
2.31312e-07
3.2225e-07
3.67982e-07
3.91475e-07
3.30601e-07
2.40523e-07
1.67194e-07
1.64747e-07
2.62994e-07
5.2311e-07
5.53941e-05
5.61619e-05
5.65264e-05
5.76288e-05
5.77092e-05
5.78395e-05
5.82226e-05
5.87064e-05
5.92307e-05
5.97736e-05
6.03113e-05
6.0843e-05
6.13566e-05
6.18487e-05
6.23222e-05
6.2761e-05
6.31639e-05
6.35885e-05
6.37504e-05
6.46119e-05
6.46605e-05
6.53229e-05
6.56027e-05
6.55078e-05
6.53347e-05
6.51024e-05
6.47911e-05
6.43763e-05
6.38325e-05
6.31315e-05
6.22496e-05
6.11527e-05
5.98206e-05
5.82079e-05
5.62909e-05
5.40223e-05
5.13873e-05
4.82855e-05
4.47725e-05
4.07698e-05
3.62643e-05
3.12942e-05
2.59019e-05
2.02634e-05
1.45798e-05
8.99645e-06
4.36403e-06
1.52949e-06
4.94774e-07
3.34157e-07
3.19133e-07
3.00534e-07
2.65039e-07
2.23888e-07
1.86597e-07
1.71115e-07
1.7366e-07
1.7363e-07
1.60958e-07
1.39927e-07
1.14552e-07
8.74545e-08
6.43291e-08
4.59744e-08
3.61823e-08
3.23362e-08
3.03763e-08
3.11516e-08
4.27255e-08
5.10553e-06
5.10303e-06
5.09909e-06
5.09378e-06
5.08917e-06
5.08163e-06
5.07442e-06
5.06606e-06
5.06113e-06
5.05666e-06
5.0479e-06
5.04497e-06
5.04429e-06
5.04201e-06
5.03165e-06
5.02118e-06
5.02191e-06
5.01999e-06
5.01271e-06
5.00434e-06
5.01088e-06
5.01848e-06
5.00638e-06
5.00287e-06
4.99364e-06
4.98299e-06
4.98797e-06
4.99163e-06
4.997e-06
4.99309e-06
4.99182e-06
4.99427e-06
4.99788e-06
4.99153e-06
4.98966e-06
4.98486e-06
4.98589e-06
4.98437e-06
4.98203e-06
4.9847e-06
4.97611e-06
4.97726e-06
4.97509e-06
4.97262e-06
4.97427e-06
4.96835e-06
4.96023e-06
4.95906e-06
4.95673e-06
4.95128e-06
4.943e-06
4.94212e-06
4.94196e-06
4.94389e-06
4.94881e-06
4.95197e-06
4.95551e-06
4.95521e-06
4.95484e-06
5.21074e-06
5.20657e-06
5.20016e-06
5.19406e-06
5.18712e-06
5.17949e-06
5.17282e-06
5.16661e-06
5.16221e-06
5.15673e-06
5.15027e-06
5.14699e-06
5.14096e-06
5.13187e-06
5.1184e-06
5.11385e-06
5.11373e-06
5.1092e-06
5.09971e-06
5.09788e-06
5.10346e-06
5.10471e-06
5.09124e-06
5.08839e-06
5.07561e-06
5.06838e-06
5.07291e-06
5.07796e-06
5.07958e-06
5.07498e-06
5.07598e-06
5.07812e-06
5.08036e-06
5.07506e-06
5.07383e-06
5.07021e-06
5.06924e-06
5.06859e-06
5.06723e-06
5.06811e-06
5.0635e-06
5.06249e-06
5.06125e-06
5.05931e-06
5.06087e-06
5.05945e-06
5.0551e-06
5.05032e-06
5.04904e-06
5.04639e-06
5.04088e-06
5.0348e-06
5.03307e-06
5.03153e-06
5.03276e-06
5.03492e-06
5.03893e-06
5.04189e-06
5.04554e-06
5.33154e-06
5.32609e-06
5.31896e-06
5.31267e-06
5.30579e-06
5.29939e-06
5.29361e-06
5.28797e-06
5.2823e-06
5.2753e-06
5.26786e-06
5.2602e-06
5.2494e-06
5.23811e-06
5.22916e-06
5.22865e-06
5.22436e-06
5.21526e-06
5.20828e-06
5.20931e-06
5.21235e-06
5.2085e-06
5.1939e-06
5.19021e-06
5.17579e-06
5.17106e-06
5.1752e-06
5.18065e-06
5.17943e-06
5.17459e-06
5.1771e-06
5.17854e-06
5.17967e-06
5.17564e-06
5.17467e-06
5.17199e-06
5.17018e-06
5.16934e-06
5.16839e-06
5.16928e-06
5.16737e-06
5.16572e-06
5.16482e-06
5.16481e-06
5.16297e-06
5.16582e-06
5.16461e-06
5.16289e-06
5.16221e-06
5.16104e-06
5.15791e-06
5.15238e-06
5.14605e-06
5.14362e-06
5.14374e-06
5.14448e-06
5.14396e-06
5.14499e-06
5.14857e-06
5.47546e-06
5.46983e-06
5.46268e-06
5.45653e-06
5.44989e-06
5.44351e-06
5.43685e-06
5.42959e-06
5.42145e-06
5.41213e-06
5.40218e-06
5.3914e-06
5.37996e-06
5.37076e-06
5.36486e-06
5.36211e-06
5.35279e-06
5.34318e-06
5.33917e-06
5.33945e-06
5.34013e-06
5.33135e-06
5.31665e-06
5.31124e-06
5.29641e-06
5.29384e-06
5.29743e-06
5.30235e-06
5.29903e-06
5.29415e-06
5.29734e-06
5.29808e-06
5.29852e-06
5.29564e-06
5.29495e-06
5.29306e-06
5.29118e-06
5.29011e-06
5.28947e-06
5.29056e-06
5.28998e-06
5.2892e-06
5.28833e-06
5.28711e-06
5.28928e-06
5.28825e-06
5.29237e-06
5.29291e-06
5.29132e-06
5.29061e-06
5.29397e-06
5.2938e-06
5.29181e-06
5.28774e-06
5.28364e-06
5.28023e-06
5.28128e-06
5.28037e-06
5.28072e-06
5.6495e-06
5.64351e-06
5.63568e-06
5.6287e-06
5.62087e-06
5.61276e-06
5.60381e-06
5.59402e-06
5.58334e-06
5.57199e-06
5.56043e-06
5.54905e-06
5.53883e-06
5.531e-06
5.52462e-06
5.51753e-06
5.50615e-06
5.49874e-06
5.49689e-06
5.4963e-06
5.49138e-06
5.47708e-06
5.4629e-06
5.45546e-06
5.44105e-06
5.44017e-06
5.4431e-06
5.44687e-06
5.44195e-06
5.43714e-06
5.44039e-06
5.44055e-06
5.44062e-06
5.43865e-06
5.4383e-06
5.43719e-06
5.4357e-06
5.43468e-06
5.43344e-06
5.43515e-06
5.43691e-06
5.43545e-06
5.43701e-06
5.43689e-06
5.43604e-06
5.43946e-06
5.43914e-06
5.44487e-06
5.44403e-06
5.44409e-06
5.44611e-06
5.4467e-06
5.45153e-06
5.44941e-06
5.4478e-06
5.44781e-06
5.45117e-06
5.44978e-06
5.45298e-06
5.85798e-06
5.85072e-06
5.84112e-06
5.83222e-06
5.82218e-06
5.81165e-06
5.80029e-06
5.78835e-06
5.77598e-06
5.76358e-06
5.75161e-06
5.74049e-06
5.73068e-06
5.72199e-06
5.71308e-06
5.70296e-06
5.69232e-06
5.68712e-06
5.68477e-06
5.6801e-06
5.66893e-06
5.65156e-06
5.63778e-06
5.62837e-06
5.61501e-06
5.6153e-06
5.6172e-06
5.61953e-06
5.61333e-06
5.60861e-06
5.61154e-06
5.61128e-06
5.61107e-06
5.6098e-06
5.60986e-06
5.60956e-06
5.60877e-06
5.60808e-06
5.60719e-06
5.60824e-06
5.61028e-06
5.61342e-06
5.61213e-06
5.61634e-06
5.61395e-06
5.62031e-06
5.61997e-06
5.62773e-06
5.62749e-06
5.62807e-06
5.62964e-06
5.63112e-06
5.63389e-06
5.63644e-06
5.63873e-06
5.64158e-06
5.64394e-06
5.64699e-06
5.65141e-06
6.10647e-06
6.09734e-06
6.08542e-06
6.07428e-06
6.06196e-06
6.0493e-06
6.03609e-06
6.02269e-06
6.0093e-06
5.99625e-06
5.98381e-06
5.9721e-06
5.96105e-06
5.95016e-06
5.93892e-06
5.92778e-06
5.91849e-06
5.91326e-06
5.90745e-06
5.89707e-06
5.88066e-06
5.86186e-06
5.84799e-06
5.83691e-06
5.82492e-06
5.8253e-06
5.82632e-06
5.82705e-06
5.81974e-06
5.81502e-06
5.81737e-06
5.81681e-06
5.81638e-06
5.81572e-06
5.81627e-06
5.81681e-06
5.81689e-06
5.81734e-06
5.81722e-06
5.81724e-06
5.81953e-06
5.82348e-06
5.82354e-06
5.82693e-06
5.82858e-06
5.8316e-06
5.83258e-06
5.83861e-06
5.84279e-06
5.84607e-06
5.849e-06
5.85199e-06
5.85494e-06
5.85854e-06
5.8623e-06
5.86606e-06
5.86983e-06
5.87187e-06
5.87651e-06
6.40522e-06
6.39411e-06
6.37985e-06
6.36659e-06
6.35226e-06
6.33778e-06
6.32298e-06
6.30821e-06
6.29358e-06
6.27931e-06
6.26545e-06
6.25198e-06
6.23877e-06
6.2257e-06
6.21299e-06
6.20146e-06
6.19194e-06
6.18376e-06
6.17249e-06
6.15629e-06
6.1361e-06
6.11661e-06
6.10213e-06
6.08974e-06
6.079e-06
6.07922e-06
6.07888e-06
6.07758e-06
6.06937e-06
6.06454e-06
6.0661e-06
6.06533e-06
6.06474e-06
6.06443e-06