/*--------------------------------*- C++ -*----------------------------------*\
| =========                 |                                                 |
| \\      /  F ield         | OpenFOAM: The Open Source CFD Toolbox           |
|  \\    /   O peration     | Version:  2312                                  |
|   \\  /    A nd           | Website:  www.openfoam.com                      |
|    \\/     M anipulation  |                                                 |
\*---------------------------------------------------------------------------*/
FoamFile
{
    version     2.0;
    format      ascii;
    arch        "LSB;label=32;scalar=64";
    class       volScalarField;
    location    "400";
    object      nut;
}
// * * * * * * * * * * * * * * * * * * * * * * * * * * * * * * * * * * * * * //

dimensions      [0 2 -1 0 0 0 0];

internalField   nonuniform List<scalar> 
76025
(
0.000169943
0.000170001
0.000170003
0.000170009
0.000170059
0.000170122
0.000170104
0.000170207
0.000170222
0.000170252
0.000170395
0.000170364
0.000170463
0.000170477
0.000170612
0.000170617
0.000170675
0.000170789
0.000170935
0.000171079
0.000171257
0.000171453
0.000171662
0.000171906
0.000172224
0.000172489
0.00017291
0.000173249
0.000173709
0.000174136
0.000174653
0.00017511
0.00017573
0.000176284
0.000176933
0.000177565
0.000178268
0.000179074
0.000179864
0.000180691
0.000181539
0.000182479
0.000183483
0.00018449
0.000185529
0.000186626
0.000187786
0.000189004
0.00019033
0.000191738
0.000193339
0.00019514
0.000197215
0.000199473
0.00020244
0.000205686
0.000209862
0.000214948
0.000221482
0.000230308
0.000240753
0.000254977
0.000274111
0.000296501
0.000324141
0.000351789
0.000380559
0.000405729
0.000429641
0.000171581
0.00017163
0.000171689
0.000171866
0.000171864
0.000171895
0.000171901
0.000171948
0.000171995
0.000172031
0.000172117
0.00017222
0.000172291
0.00017235
0.000172477
0.000172596
0.000172672
0.000172857
0.000173079
0.000173288
0.000173511
0.000173737
0.000173986
0.000174248
0.00017456
0.00017487
0.000175239
0.000175623
0.000176055
0.000176518
0.000177026
0.000177541
0.000178113
0.000178704
0.000179339
0.000180011
0.000180716
0.000181465
0.000182241
0.000183055
0.000183923
0.00018483
0.00018579
0.000186798
0.000187881
0.000189041
0.000190285
0.000191643
0.000193144
0.000194827
0.000196705
0.000198868
0.00020133
0.000204254
0.000207697
0.000211917
0.000217101
0.000223595
0.000232034
0.000242707
0.000256806
0.000274373
0.000296202
0.000320519
0.00034795
0.000374581
0.00040097
0.00042158
0.000439887
0.000173305
0.000173449
0.000173564
0.000173711
0.000173825
0.000173926
0.000174018
0.000174091
0.00017415
0.000174241
0.000174219
0.000174348
0.000174421
0.000174617
0.000174813
0.000174984
0.000175151
0.000175335
0.000175543
0.000175762
0.000175998
0.000176244
0.000176511
0.000176795
0.000177109
0.000177443
0.000177809
0.000178202
0.000178632
0.000179094
0.000179595
0.000180125
0.000180692
0.000181294
0.000181936
0.000182618
0.000183341
0.000184107
0.000184916
0.000185772
0.000186683
0.000187654
0.00018869
0.000189801
0.000190999
0.000192298
0.000193719
0.000195283
0.000197028
0.000198986
0.000201212
0.000203765
0.000206743
0.00021026
0.000214489
0.000219698
0.000226166
0.000234438
0.000244956
0.00025843
0.000275316
0.000295491
0.000319235
0.000344157
0.000371208
0.000395356
0.000418102
0.00043392
0.000444861
0.000175511
0.000175633
0.000175768
0.000175914
0.000176058
0.0001762
0.000176337
0.000176472
0.000176593
0.000176722
0.000176833
0.000176971
0.000177122
0.000177294
0.000177481
0.000177674
0.000177874
0.000178085
0.000178311
0.00017855
0.000178805
0.000179075
0.000179364
0.000179672
0.000180003
0.000180359
0.000180743
0.000181155
0.000181598
0.000182075
0.000182587
0.000183133
0.000183718
0.000184342
0.000185009
0.00018572
0.000186478
0.000187287
0.000188149
0.000189069
0.000190056
0.000191116
0.00019226
0.000193499
0.000194845
0.00019632
0.000197945
0.000199753
0.000201781
0.00020408
0.000206715
0.000209776
0.000213383
0.000217711
0.000222992
0.000229563
0.000237815
0.0002483
0.000261449
0.000277774
0.000297222
0.000319461
0.000343992
0.000368386
0.000393648
0.000413779
0.000432069
0.000441511
0.000444512
0.000178404
0.000178317
0.000178344
0.000178512
0.000178679
0.000178843
0.000179009
0.000179179
0.000179349
0.000179523
0.000179697
0.00017988
0.000180072
0.000180274
0.000180486
0.000180706
0.000180936
0.000181177
0.000181431
0.000181698
0.000181981
0.000182281
0.000182599
0.000182937
0.000183298
0.000183684
0.000184096
0.000184536
0.000185008
0.000185512
0.000186052
0.000186629
0.000187247
0.000187908
0.000188616
0.000189373
0.000190184
0.000191054
0.000191987
0.000192992
0.000194076
0.00019525
0.000196526
0.00019792
0.000199447
0.000201133
0.000203007
0.00020511
0.000207493
0.000210224
0.000213395
0.000217131
0.000221604
0.000227051
0.000233774
0.00024218
0.000252673
0.00026576
0.000281617
0.000300488
0.000321724
0.000344919
0.000368831
0.000391445
0.000413584
0.000428353
0.000441574
0.000443117
0.00043754
0.000181813
0.000181663
0.000181791
0.000181685
0.000181808
0.00018197
0.00018214
0.000182322
0.000182515
0.000182717
0.000182928
0.000183148
0.000183377
0.000183615
0.000183862
0.000184118
0.000184384
0.000184661
0.00018495
0.000185253
0.000185572
0.000185908
0.000186263
0.000186639
0.000187038
0.000187462
0.000187912
0.000188391
0.000188902
0.000189446
0.000190028
0.000190651
0.000191316
0.00019203
0.000192796
0.000193617
0.0001945
0.000195452
0.000196479
0.000197592
0.0001988
0.000200117
0.000201559
0.000203146
0.000204901
0.000206855
0.000209049
0.000211539
0.000214397
0.000217719
0.000221636
0.000226324
0.000232013
0.000239003
0.000247641
0.000258331
0.000271386
0.000287103
0.000305303
0.000325927
0.000347801
0.000370689
0.000392496
0.000412245
0.000429757
0.000438011
0.000445667
0.000437346
0.000422985
0.000185007
0.000185116
0.000185084
0.000185201
0.000185401
0.000185599
0.000185803
0.000186002
0.000186206
0.000186421
0.00018665
0.000186892
0.000187147
0.000187414
0.000187693
0.000187985
0.000188288
0.000188604
0.000188934
0.000189278
0.00018964
0.000190019
0.000190418
0.000190839
0.000191284
0.000191755
0.000192252
0.00019278
0.000193341
0.000193939
0.000194576
0.000195258
0.000195988
0.000196772
0.000197615
0.000198521
0.000199499
0.000200558
0.000201708
0.00020296
0.000204329
0.000205831
0.000207489
0.00020933
0.000211386
0.000213701
0.000216334
0.000219363
0.000222892
0.000227059
0.000232041
0.00023807
0.000245424
0.000254423
0.000265385
0.000278593
0.000294142
0.000312023
0.000331713
0.000352918
0.00037409
0.000395335
0.000413541
0.000429481
0.00044058
0.000441709
0.000443029
0.000422579
0.000400762
0.000189297
0.000189319
0.000189325
0.00018938
0.000189342
0.000189581
0.000189696
0.000190051
0.000190372
0.000190661
0.00019094
0.000191219
0.000191505
0.000191801
0.000192111
0.000192434
0.000192772
0.000193125
0.000193495
0.000193882
0.000194288
0.000194714
0.000195162
0.000195635
0.000196133
0.000196657
0.000197211
0.000197799
0.000198422
0.000199086
0.000199795
0.000200553
0.000201366
0.000202241
0.000203184
0.000204202
0.000205307
0.000206508
0.000207819
0.000209257
0.00021084
0.000212593
0.000214547
0.000216738
0.000219216
0.000222044
0.000225308
0.00022912
0.000233624
0.000239002
0.000245477
0.000253306
0.000262764
0.000274106
0.00028751
0.000303032
0.000320493
0.000339593
0.000359563
0.000379981
0.000399059
0.000417311
0.000430471
0.000441747
0.000444364
0.000438659
0.000431767
0.000397956
0.000370929
0.000194083
0.000194288
0.000194412
0.000194532
0.000194639
0.000194805
0.000194996
0.000195238
0.000195503
0.000195778
0.000196062
0.000196353
0.000196656
0.000196972
0.000197303
0.000197651
0.000198017
0.000198402
0.000198808
0.000199234
0.000199684
0.000200157
0.000200657
0.000201184
0.000201738
0.000202324
0.000202943
0.0002036
0.0002043
0.000205045
0.000205843
0.000206698
0.000207619
0.000208612
0.000209687
0.000210854
0.000212127
0.00021352
0.000215052
0.000216746
0.000218629
0.000220738
0.000223114
0.000225816
0.000228912
0.000232497
0.000236691
0.000241643
0.000247533
0.00025457
0.00026298
0.000272984
0.00028476
0.000298406
0.000313879
0.000330987
0.000349315
0.000368356
0.000387224
0.00040542
0.000421039
0.000434936
0.000441722
0.000447425
0.00043951
0.000428172
0.000409392
0.000364178
0.000330995
0.000200118
0.000200298
0.000200461
0.000200626
0.000200793
0.000200976
0.00020118
0.000201409
0.000201659
0.000201926
0.000202208
0.000202505
0.000202817
0.000203147
0.000203495
0.000203863
0.000204253
0.000204666
0.000205104
0.000205568
0.000206059
0.00020658
0.000207131
0.000207713
0.00020833
0.000208983
0.000209678
0.000210418
0.000211208
0.000212055
0.000212965
0.000213945
0.000215005
0.000216156
0.000217409
0.000218778
0.000220284
0.000221946
0.000223793
0.000225858
0.000228181
0.000230814
0.000233824
0.000237289
0.000241312
0.000246011
0.000251539
0.000258066
0.000265776
0.000274852
0.000285449
0.00029767
0.000311524
0.000326902
0.000343553
0.000361086
0.000378942
0.000396497
0.000412832
0.000427381
0.000438229
0.000446389
0.000445679
0.000444666
0.000424892
0.000409173
0.000373889
0.000322043
0.000281963
0.000207306
0.000207491
0.000207678
0.000207875
0.000208078
0.000208291
0.000208517
0.000208759
0.000209018
0.000209294
0.000209586
0.000209895
0.000210223
0.000210569
0.000210938
0.000211329
0.000211746
0.000212189
0.000212662
0.000213166
0.000213703
0.000214274
0.00021488
0.000215525
0.000216212
0.000216946
0.000217731
0.000218573
0.000219479
0.000220455
0.000221512
0.000222658
0.000223909
0.000225277
0.00022678
0.000228441
0.000230286
0.000232347
0.000234665
0.00023729
0.000240281
0.000243713
0.000247675
0.000252271
0.000257627
0.000263869
0.000271148
0.000279613
0.000289388
0.000300564
0.00031316
0.000327112
0.000342252
0.000358298
0.000374852
0.000391404
0.000407329
0.000421942
0.000434335
0.000443851
0.000448693
0.000449735
0.00044071
0.000431534
0.000400144
0.000379636
0.000323933
0.00027444
0.000227239
0.000215919
0.000216125
0.000216338
0.000216563
0.000216798
0.000217042
0.000217297
0.000217566
0.00021785
0.00021815
0.000218466
0.000218801
0.000219155
0.000219531
0.000219931
0.000220357
0.000220812
0.000221297
0.000221818
0.000222373
0.000222966
0.000223598
0.000224276
0.000225002
0.000225782
0.000226621
0.000227526
0.000228506
0.000229569
0.000230726
0.00023199
0.000233376
0.000234905
0.000236596
0.000238477
0.000240581
0.000242948
0.000245626
0.000248672
0.000252154
0.000256154
0.000260762
0.000266081
0.000272222
0.000279297
0.00028741
0.000296654
0.000307074
0.000318711
0.000331515
0.000345354
0.000360019
0.000375214
0.000390547
0.000405538
0.000419622
0.000432153
0.000442407
0.000449513
0.000452684
0.000450392
0.000443026
0.000425262
0.000406455
0.000365496
0.000333415
0.000266935
0.000226746
0.000167071
0.000226333
0.000226568
0.000226811
0.000227069
0.000227337
0.000227616
0.000227907
0.000228212
0.000228532
0.000228869
0.000229224
0.0002296
0.000229998
0.000230421
0.000230871
0.000231351
0.000231865
0.000232415
0.000233002
0.000233631
0.000234306
0.000235032
0.000235815
0.000236662
0.000237579
0.000238576
0.000239662
0.000240851
0.000242154
0.00024359
0.000245178
0.000246942
0.000248909
0.000251113
0.000253593
0.000256397
0.000259578
0.0002632
0.000267334
0.000272058
0.000277456
0.000283616
0.000290621
0.000298548
0.000307454
0.000317371
0.000328293
0.000340171
0.000352895
0.000366301
0.000380145
0.000394146
0.000407932
0.000421044
0.000432972
0.000443129
0.000450872
0.000455442
0.00045602
0.000451675
0.000441302
0.000424515
0.000398043
0.000369052
0.000318255
0.000276931
0.000211
0.000174873
0.0001184
0.000239047
0.000239322
0.000239606
0.000239906
0.000240217
0.000240541
0.000240878
0.000241232
0.000241604
0.000241995
0.000242409
0.000242847
0.000243313
0.000243809
0.000244339
0.000244905
0.000245508
0.000246156
0.000246852
0.000247603
0.000248416
0.000249298
0.000250258
0.000251305
0.000252453
0.000253714
0.000255103
0.00025664
0.000258346
0.000260246
0.000262369
0.00026475
0.000267427
0.000270444
0.000273852
0.000277706
0.000282066
0.000286996
0.00029256
0.000298822
0.000305837
0.000313653
0.000322299
0.000331783
0.000342082
0.000353139
0.000364856
0.000377089
0.000389645
0.000402279
0.000414695
0.000426533
0.000437391
0.000446787
0.000454221
0.000459103
0.000460805
0.000458518
0.000451515
0.000438729
0.000419654
0.000393002
0.000358593
0.000316554
0.000261068
0.000216485
0.000160312
0.000126506
7.09162e-05
0.000254795
0.00025513
0.000255474
0.000255836
0.000256212
0.000256603
0.000257012
0.000257441
0.000257893
0.000258372
0.000258879
0.000259421
0.000259996
0.000260609
0.000261265
0.00026197
0.00026273
0.000263553
0.000264445
0.000265416
0.000266477
0.00026764
0.000268917
0.000270325
0.000271881
0.000273605
0.000275521
0.000277653
0.000280032
0.00028269
0.000285664
0.000288993
0.000292718
0.000296884
0.000301538
0.000306725
0.000312487
0.000318863
0.000325885
0.000333571
0.000341926
0.000350938
0.000360569
0.000370758
0.000381411
0.000392403
0.000403573
0.000414719
0.000425601
0.000435933
0.000445389
0.000453587
0.000460116
0.000464482
0.000466196
0.000464667
0.000459292
0.000449223
0.000433878
0.000412185
0.000384327
0.00034841
0.000304379
0.000253839
0.00020359
0.00015926
0.000114262
7.91855e-05
4.44188e-05
0.000274742
0.000275177
0.000275624
0.000276094
0.000276583
0.000277093
0.000277628
0.000278193
0.000278787
0.000279417
0.000280088
0.000280805
0.000281575
0.000282405
0.000283301
0.000284273
0.00028533
0.000286484
0.000287745
0.000289127
0.000290645
0.000292317
0.000294159
0.000296192
0.000298439
0.000300922
0.000303669
0.000306707
0.000310064
0.000313771
0.000317858
0.000322354
0.000327288
0.000332684
0.000338566
0.000344948
0.000351838
0.000359235
0.000367125
0.000375481
0.000384256
0.000393388
0.00040279
0.000412352
0.000421939
0.000431385
0.000440494
0.000449039
0.000456754
0.000463336
0.000468449
0.000471698
0.000472684
0.000470907
0.000465926
0.000457144
0.00044394
0.000425566
0.000401556
0.000371377
0.000334072
0.000288601
0.000240035
0.000192591
0.00014849
0.000108226
7.04991e-05
4.48441e-05
2.88907e-05
0.000300927
0.000301555
0.000302201
0.000302878
0.000303583
0.000304321
0.000305098
0.000305922
0.000306798
0.000307733
0.000308736
0.000309815
0.000310977
0.000312233
0.000313594
0.00031507
0.000316673
0.000318417
0.000320314
0.000322381
0.000324631
0.000327083
0.000329751
0.000332655
0.000335812
0.000339238
0.000342953
0.000346973
0.000351313
0.000355986
0.000361006
0.000366378
0.000372106
0.000378189
0.00038462
0.000391383
0.000398454
0.000405798
0.000413369
0.000421104
0.000428929
0.000436749
0.00044445
0.000451898
0.000458934
0.000465374
0.000471004
0.000475585
0.000478837
0.000480454
0.000480099
0.000477369
0.000471899
0.000463198
0.000450889
0.000434354
0.000412971
0.000386431
0.000354154
0.000314145
0.000268527
0.000222861
0.000177819
0.000134702
9.82109e-05
6.40328e-05
4.04925e-05
2.71034e-05
2.09776e-05
0.000337464
0.000338486
0.000339544
0.00034065
0.000341803
0.000343007
0.000344272
0.000345605
0.000347012
0.000348502
0.000350083
0.000351763
0.00035355
0.000355453
0.00035748
0.000359642
0.000361946
0.000364402
0.00036702
0.000369808
0.000372774
0.000375929
0.000379279
0.000382831
0.000386592
0.000390567
0.000394759
0.000399169
0.000403798
0.000408642
0.000413693
0.000418941
0.000424371
0.000429962
0.000435686
0.000441509
0.000447387
0.000453267
0.000459083
0.000464756
0.000470194
0.000475287
0.000479908
0.000483908
0.000487116
0.000489336
0.000490348
0.000489906
0.000487716
0.000483484
0.000476879
0.000467491
0.000455047
0.000439077
0.00041923
0.000394977
0.000365777
0.000330524
0.000288435
0.00024507
0.000201379
0.000159727
0.000119039
8.53181e-05
5.64396e-05
3.57522e-05
2.42871e-05
1.87172e-05
1.74624e-05
0.000392693
0.000394246
0.000395829
0.000397453
0.000399116
0.000400821
0.000402576
0.000404386
0.000406256
0.000408191
0.000410197
0.000412277
0.000414437
0.000416681
0.000419013
0.000421437
0.000423955
0.000426571
0.000429288
0.000432107
0.00043503
0.000438057
0.000441187
0.000444421
0.000447754
0.000451182
0.000454699
0.000458296
0.000461964
0.000465688
0.000469452
0.000473233
0.000477008
0.000480743
0.000484402
0.000487938
0.000491298
0.000494418
0.000497222
0.00049962
0.000501511
0.000502776
0.000503277
0.000502856
0.000501331
0.000498499
0.000494138
0.000488
0.000479766
0.000469208
0.000455987
0.000439694
0.000420302
0.000397268
0.000370307
0.000337887
0.000299336
0.00025844
0.000216988
0.000176935
0.000137712
0.000101855
7.14747e-05
4.71265e-05
3.03394e-05
2.12481e-05
1.60806e-05
1.53464e-05
1.58437e-05
0.00047084
0.000472328
0.000473824
0.000475325
0.000476818
0.00047831
0.000479804
0.000481306
0.000482819
0.000484345
0.000485886
0.000487445
0.000489021
0.000490615
0.000492227
0.000493857
0.000495504
0.000497169
0.000498849
0.000500542
0.000502246
0.000503958
0.000505671
0.000507379
0.000509075
0.000510747
0.000512385
0.000513976
0.000515503
0.000516946
0.000518283
0.000519488
0.000520527
0.000521364
0.000521954
0.000522244
0.000522173
0.00052167
0.00052065
0.000519017
0.000516661
0.000513455
0.000509251
0.000503877
0.000497146
0.000488856
0.000478799
0.00046671
0.000452255
0.000435411
0.000415712
0.000392808
0.000367389
0.000336128
0.000300445
0.000262388
0.000223906
0.000185243
0.000148661
0.000113846
8.25878e-05
5.73626e-05
3.74499e-05
2.40875e-05
1.75767e-05
1.38357e-05
1.29683e-05
1.2533e-05
1.25561e-05
0.000557379
0.000557761
0.000558133
0.000558492
0.000558829
0.00055914
0.000559424
0.00055968
0.000559904
0.000560096
0.000560253
0.000560374
0.000560448
0.000560476
0.000560458
0.000560392
0.000560276
0.000560108
0.000559886
0.000559605
0.00055926
0.000558843
0.000558345
0.000557752
0.000557052
0.000556231
0.00055528
0.000554176
0.000552906
0.000551441
0.000549761
0.000547828
0.000545609
0.000543062
0.000540136
0.000536774
0.000532908
0.000528453
0.00052332
0.000517406
0.000510593
0.000502754
0.000493712
0.000483277
0.000471305
0.000457594
0.00044201
0.000424151
0.000403876
0.000381553
0.000355448
0.000324905
0.000291657
0.000256292
0.00022086
0.000184862
0.000150904
0.000117995
8.8778e-05
6.31534e-05
4.30291e-05
2.80866e-05
1.81825e-05
1.32016e-05
1.1173e-05
1.07105e-05
1.00585e-05
9.08489e-06
1.09376e-05
0.000626331
0.000625164
0.000623965
0.000622728
0.000621447
0.000620113
0.000618727
0.000617281
0.000615777
0.000614203
0.000612564
0.000610848
0.000609057
0.000607182
0.000605222
0.00060317
0.000601021
0.000598782
0.000596443
0.000593994
0.000591424
0.000588716
0.000585857
0.000582792
0.000579555
0.000576101
0.000572471
0.000568578
0.000564473
0.00056005
0.000555367
0.000550305
0.000544882
0.000539031
0.000532699
0.000525817
0.000518303
0.000510051
0.000500981
0.00049099
0.000479963
0.000467764
0.000454131
0.000438894
0.000422181
0.000403641
0.000383366
0.000359546
0.000332678
0.000304162
0.000272415
0.000240122
0.000207526
0.000174752
0.000144312
0.000114061
8.74627e-05
6.42113e-05
4.4375e-05
3.00474e-05
1.93282e-05
1.26901e-05
9.52358e-06
8.25063e-06
7.60486e-06
6.19569e-06
5.5406e-06
7.44869e-06
1.20363e-05
0.000656289
0.000653777
0.000651165
0.000648475
0.00064574
0.000642871
0.000640016
0.000636964
0.000633959
0.000630719
0.00062753
0.000624098
0.000620688
0.000617062
0.000613387
0.000609547
0.000605578
0.000601471
0.000597217
0.000592802
0.000588223
0.000583434
0.000578523
0.000573227
0.000567975
0.000562111
0.000556431
0.000549947
0.000543716
0.000536536
0.000529617
0.000521708
0.000513761
0.000505167
0.000496021
0.000486186
0.000475562
0.000463995
0.000451546
0.000438115
0.000423548
0.000407677
0.000389941
0.000370362
0.00034877
0.00032468
0.000298985
0.000271019
0.000242842
0.000213647
0.000184348
0.000155653
0.000128066
0.000102116
7.93577e-05
5.87817e-05
4.17683e-05
2.85924e-05
1.86445e-05
1.20677e-05
8.27972e-06
6.24006e-06
5.41555e-06
4.27013e-06
3.60902e-06
3.74147e-06
5.60022e-06
9.29894e-06
1.53131e-05
0.000632926
0.000629445
0.000625896
0.000622272
0.000618564
0.000614762
0.000610868
0.000606868
0.000602769
0.000598554
0.00059423
0.00058978
0.000585211
0.000580505
0.000575663
0.000570675
0.000565532
0.000560221
0.000554727
0.000549044
0.000543161
0.000537064
0.000530747
0.00052418
0.000517368
0.000510263
0.000502877
0.000495142
0.000487073
0.000478595
0.000469718
0.000460352
0.000450471
0.000439998
0.000428858
0.000416978
0.000404147
0.000390205
0.000374982
0.000358281
0.000340052
0.00032029
0.000298604
0.000276132
0.000252125
0.000227749
0.000202791
0.000176758
0.000152218
0.000127135
0.000104085
8.31091e-05
6.44695e-05
4.84021e-05
3.4973e-05
2.40711e-05
1.58398e-05
1.02334e-05
6.74493e-06
4.71422e-06
3.51159e-06
2.73253e-06
2.31055e-06
2.21793e-06
2.723e-06
4.45444e-06
7.31163e-06
1.13546e-05
1.78751e-05
0.000549649
0.00054593
0.000542132
0.000538251
0.000534282
0.000530219
0.000526058
0.000521795
0.000517427
0.000512947
0.000508352
0.000503637
0.000498793
0.000493807
0.000488673
0.000483385
0.000477937
0.00047232
0.000466525
0.000460542
0.000454359
0.000447965
0.000441346
0.000434486
0.000427366
0.000419963
0.000412247
0.000404175
0.000395715
0.000386789
0.000377319
0.000367218
0.000356395
0.000344752
0.000332196
0.000318586
0.000303964
0.000288318
0.000271645
0.000253841
0.000235033
0.000215322
0.000194669
0.000174051
0.000152357
0.000131716
0.000111388
9.17023e-05
7.513e-05
5.88302e-05
4.57059e-05
3.45854e-05
2.52337e-05
1.76443e-05
1.15161e-05
7.42323e-06
4.92863e-06
3.41277e-06
2.42813e-06
1.81417e-06
1.46461e-06
1.35194e-06
1.56043e-06
2.14606e-06
4.28158e-06
6.05781e-06
7.61402e-06
1.07984e-05
1.57758e-05
0.000407444
0.000404261
0.000401015
0.000397703
0.000394314
0.000390843
0.000387289
0.000383648
0.000379917
0.000376092
0.00037217
0.000368147
0.000364017
0.000359776
0.000355416
0.000350932
0.000346315
0.000341561
0.000336657
0.000331598
0.000326373
0.000320968
0.000315379
0.000309579
0.000303549
0.00029725
0.000290622
0.000283518
0.000275865
0.000267613
0.000258701
0.000249076
0.000238678
0.000227467
0.000215406
0.00020249
0.000188746
0.000174171
0.00015897
0.000143233
0.000127298
0.000111456
9.58834e-05
8.12486e-05
6.73461e-05
5.50949e-05
4.4146e-05
3.4542e-05
2.70386e-05
2.01732e-05
1.50358e-05
1.08186e-05
6.94573e-06
4.63963e-06
3.24705e-06
2.30068e-06
1.64915e-06
1.17783e-06
8.98571e-07
8.11415e-07
9.21097e-07
1.30166e-06
2.25503e-06
3.00266e-06
3.63978e-06
3.50445e-06
4.10919e-06
6.24232e-06
9.57559e-06
0.000227738
0.000225788
0.000223792
0.000221752
0.000219667
0.000217533
0.000215349
0.000213114
0.000210825
0.000208481
0.00020608
0.000203618
0.000201094
0.000198504
0.000195843
0.000193109
0.00019029
0.000187395
0.000184393
0.000181308
0.000178104
0.00017478
0.000171363
0.00016774
0.000163913
0.000159725
0.000154988
0.000149699
0.000143816
0.000137324
0.000130209
0.000122495
0.000114218
0.000105449
9.63182e-05
8.6931e-05
7.74843e-05
6.81417e-05
5.91505e-05
5.06849e-05
4.28451e-05
3.58479e-05
2.96359e-05
2.42933e-05
1.96763e-05
1.56876e-05
1.23254e-05
9.5419e-06
7.20855e-06
5.17187e-06
3.56056e-06
2.50093e-06
1.77752e-06
1.30391e-06
9.51941e-07
6.90839e-07
5.16731e-07
4.42685e-07
4.07525e-07
5.96557e-07
1.14933e-06
1.59966e-06
1.94571e-06
1.94408e-06
1.67373e-06
1.15105e-06
1.14193e-06
1.84011e-06
3.43253e-06
6.94381e-05
6.87651e-05
6.80748e-05
6.73724e-05
6.66478e-05
6.59022e-05
6.51379e-05
6.43559e-05
6.3557e-05
6.274e-05
6.1906e-05
6.10521e-05
6.01799e-05
5.92863e-05
5.83683e-05
5.74342e-05
5.64573e-05
5.54821e-05
5.44317e-05
5.34049e-05
5.22826e-05
5.1158e-05
4.99866e-05
4.84903e-05
4.66633e-05
4.45536e-05
4.22347e-05
3.97566e-05
3.71709e-05
3.45321e-05
3.18855e-05
2.92782e-05
2.6746e-05
2.43167e-05
2.20137e-05
1.98443e-05
1.78262e-05
1.59461e-05
1.42002e-05
1.25725e-05
1.10466e-05
9.59152e-06
8.21247e-06
6.85069e-06
5.59457e-06
4.42299e-06
3.35412e-06
2.36307e-06
1.57277e-06
1.04679e-06
7.1518e-07
5.11167e-07
3.95537e-07
3.0792e-07
2.31474e-07
1.54765e-07
1.16105e-07
1.19897e-07
1.49639e-07
2.23189e-07
3.40406e-07
4.11639e-07
4.50532e-07
3.77067e-07
2.59359e-07
1.61802e-07
1.37216e-07
1.63348e-07
2.78034e-07
6.44484e-06
6.53493e-06
6.5857e-06
6.72598e-06
6.74501e-06
6.7694e-06
6.82362e-06
6.89024e-06
6.96246e-06
7.03782e-06
7.11367e-06
7.18989e-06
7.26522e-06
7.33921e-06
7.41226e-06
7.48268e-06
7.54992e-06
7.62164e-06
7.66259e-06
7.79129e-06
7.81657e-06
7.92504e-06
7.9823e-06
8.00224e-06
8.0143e-06
8.02046e-06
8.01846e-06
8.0054e-06
7.97819e-06
7.93333e-06
7.86773e-06
7.77694e-06
7.65803e-06
7.50493e-06
7.3138e-06
7.07769e-06
6.79348e-06
6.4463e-06
6.04138e-06
5.56538e-06
5.01293e-06
4.38474e-06
3.68198e-06
2.92399e-06
2.1365e-06
1.33865e-06
6.58218e-07
2.33071e-07
7.59414e-08
5.15908e-08
4.95506e-08
4.69258e-08
4.16157e-08
3.53495e-08
2.96228e-08
2.73102e-08
2.78611e-08
2.7999e-08
2.6086e-08
2.27886e-08
1.8745e-08
1.43766e-08
1.06217e-08
7.62304e-09
6.02337e-09
5.40337e-09
5.09379e-09
5.24089e-09
7.20954e-09
0.000172313
0.000172251
0.000172165
0.000172055
0.000171954
0.000171804
0.00017166
0.000171491
0.000171377
0.000171274
0.000171094
0.000171015
0.000170943
0.000170831
0.000170562
0.000170349
0.000170327
0.000170251
0.000170091
0.000169938
0.000170033
0.000170169
0.000169942
0.00016985
0.000169665
0.000169447
0.000169497
0.000169545
0.000169644
0.000169567
0.000169515
0.000169533
0.000169585
0.000169499
0.000169486
0.000169437
0.000169487
0.000169493
0.000169495
0.000169578
0.000169466
0.0001695
0.000169495
0.000169526
0.000169586
0.000169512
0.000169428
0.000169497
0.000169527
0.000169506
0.000169391
0.000169464
0.000169455
0.000169519
0.000169648
0.000169697
0.000169792
0.000169817
0.000169857
0.000174142
0.000174052
0.000173924
0.0001738
0.00017366
0.000173507
0.000173369
0.000173235
0.00017313
0.000173006
0.00017286
0.000172758
0.000172588
0.000172364
0.000172071
0.00017197
0.000171955
0.000171818
0.000171641
0.000171604
0.000171688
0.000171709
0.000171448
0.000171369
0.000171123
0.000170971
0.000171014
0.000171087
0.000171122
0.000171035
0.000171021
0.000171034
0.000171063
0.000170991
0.000170992
0.000170955
0.000170981
0.000171
0.000171008
0.000171066
0.000171012
0.000171039
0.000171046
0.000171065
0.000171142
0.000171133
0.000171094
0.000171079
0.000171128
0.000171158
0.000171118
0.000171057
0.000171093
0.000171108
0.000171135
0.000171202
0.000171303
0.000171384
0.000171483
0.000176191
0.000176079
0.000175939
0.000175811
0.000175671
0.000175538
0.000175412
0.000175288
0.000175161
0.000175008
0.000174842
0.000174662
0.000174422
0.000174182
0.000174009
0.000173996
0.00017388
0.000173653
0.000173531
0.000173538
0.00017358
0.000173514
0.000173231
0.000173141
0.000172872
0.00017276
0.000172802
0.000172882
0.000172869
0.000172778
0.00017279
0.000172791
0.000172802
0.000172749
0.000172755
0.000172733
0.00017274
0.000172761
0.000172771
0.000172829
0.000172826
0.000172833
0.00017286
0.000172913
0.000172927
0.000173031
0.000173029
0.000173051
0.000173133
0.00017319
0.000173179
0.000173109
0.000172997
0.00017302
0.000173073
0.000173079
0.000173055
0.000173082
0.000173168
0.000178573
0.000178458
0.000178319
0.000178193
0.000178058
0.000177925
0.000177786
0.000177636
0.000177467
0.000177276
0.000177069
0.000176844
0.00017661
0.000176425
0.000176306
0.000176234
0.000176023
0.000175828
0.000175761
0.00017576
0.000175765
0.0001756
0.00017532
0.000175204
0.000174931
0.000174853
0.000174894
0.000174965
0.000174916
0.000174825
0.00017485
0.00017484
0.000174839
0.000174803
0.000174812
0.000174804
0.000174807
0.000174826
0.000174844
0.000174904
0.00017492
0.000174945
0.000174965
0.000174962
0.00017508
0.000175067
0.000175222
0.000175268
0.000175263
0.000175335
0.000175555
0.000175635
0.000175655
0.000175597
0.000175535
0.000175428
0.000175492
0.000175417
0.000175433
0.000181391
0.000181272
0.000181123
0.000180985
0.000180832
0.000180673
0.000180498
0.000180308
0.0001801
0.000179878
0.000179651
0.000179427
0.000179226
0.000179071
0.00017894
0.000178789
0.00017856
0.000178425
0.000178396
0.000178378
0.000178286
0.000178023
0.000177758
0.000177612
0.000177348
0.000177305
0.000177334
0.000177386
0.000177311
0.000177223
0.000177249
0.000177228
0.000177223
0.0001772
0.000177213
0.000177218
0.000177225
0.000177244
0.00017724
0.000177315
0.000177392
0.000177373
0.000177458
0.000177481
0.000177476
0.000177594
0.000177576
0.000177772
0.000177752
0.000177771
0.00017788
0.000178006
0.00017821
0.00017824
0.000178215
0.000178231
0.000178358
0.000178348
0.000178455
0.000184694
0.000184556
0.000184381
0.000184215
0.000184029
0.000183834
0.000183624
0.000183402
0.000183172
0.00018294
0.000182715
0.000182505
0.000182319
0.000182153
0.000181982
0.000181787
0.000181589
0.0001815
0.00018146
0.000181372
0.000181174
0.000180865
0.000180612
0.000180437
0.000180191
0.000180177
0.000180187
0.000180216
0.000180121
0.000180034
0.000180055
0.000180029
0.00018002
0.000180007
0.000180025
0.000180042
0.000180058
0.000180079
0.000180082
0.000180129
0.00018019
0.000180309
0.000180283
0.000180419
0.000180348
0.000180565
0.000180591
0.000180742
0.000180726
0.000180794
0.000180761
0.000180797
0.000180894
0.000180994
0.000181081
0.00018118
0.000181267
0.000181412
0.000181565
0.000188538
0.000188373
0.000188166
0.000187969
0.000187752
0.000187528
0.000187294
0.000187055
0.000186817
0.000186583
0.00018636
0.000186149
0.000185949
0.000185753
0.00018555
0.00018535
0.000185187
0.000185101
0.000185001
0.00018482
0.000184538
0.000184213
0.000183964
0.000183766
0.000183547
0.000183537
0.000183535
0.000183539
0.000183427
0.000183342
0.000183352
0.000183324
0.000183311
0.000183307
0.000183331
0.000183361
0.000183388
0.000183432
0.000183449
0.000183448
0.000183548
0.000183612
0.000183612
0.000183757
0.000183781
0.000183811
0.000183853
0.000184078
0.000184076
0.000184206
0.000184275
0.000184365
0.000184318
0.000184392
0.00018448
0.000184575
0.000184656
0.000184709
0.000184836
0.000193044
0.000192854
0.000192617
0.000192393
0.000192152
0.000191907
0.000191656
0.000191405
0.000191157
0.000190913
0.000190677
0.000190447
0.000190221
0.000189997
0.000189781
0.000189585
0.000189427
0.000189294
0.000189106
0.000188835
0.000188499
0.00018817
0.000187919
0.000187705
0.00018751
0.000187505
0.00018748
0.000187451
0.000187327
0.000187241
0.000187239