/*--------------------------------*- C++ -*----------------------------------*\
| =========                 |                                                 |
| \\      /  F ield         | OpenFOAM: The Open Source CFD Toolbox           |
|  \\    /   O peration     | Version:  2312                                  |
|   \\  /    A nd           | Website:  www.openfoam.com                      |
|    \\/     M anipulation  |                                                 |
\*---------------------------------------------------------------------------*/
FoamFile
{
    version     2.0;
    format      ascii;
    arch        "LSB;label=32;scalar=64";
    class       volScalarField;
    location    "400";
    object      omega;
}
// * * * * * * * * * * * * * * * * * * * * * * * * * * * * * * * * * * * * * //

dimensions      [0 0 -1 0 0 0 0];

internalField   nonuniform List<scalar> 
76025
(
0.029163
0.0291465
0.0291264
0.0291093
0.0291024
0.0291029
0.0290986
0.0290924
0.029079
0.0290682
0.0290586
0.0290573
0.0290528
0.0290393
0.0290352
0.0290276
0.0290307
0.0290269
0.0290256
0.0290274
0.0290354
0.0290467
0.0290601
0.0290798
0.0291112
0.0291344
0.0291841
0.0292194
0.029275
0.0293254
0.0293909
0.0294473
0.0295329
0.0296067
0.0296965
0.0297824
0.0298805
0.0299959
0.0301082
0.0302259
0.0303456
0.0304813
0.030627
0.030772
0.030922
0.0310804
0.0312481
0.031426
0.0316194
0.0318261
0.0320627
0.0323297
0.0326392
0.0329783
0.0334243
0.033907
0.0345241
0.035266
0.0361845
0.0373952
0.0387073
0.0405416
0.0427299
0.045507
0.0487457
0.0525189
0.0567829
0.0621477
0.06814
0.0294269
0.029436
0.0294359
0.0294274
0.0294256
0.0294273
0.0294277
0.02943
0.0294296
0.0294277
0.0294229
0.0294137
0.0294178
0.0294196
0.0294213
0.0294159
0.029429
0.0294228
0.0294204
0.0294217
0.0294307
0.0294435
0.0294621
0.0294841
0.029515
0.0295458
0.0295865
0.0296299
0.029681
0.0297374
0.0298013
0.0298663
0.0299413
0.0300194
0.030105
0.0301968
0.0302941
0.0303986
0.0305071
0.0306218
0.0307454
0.0308749
0.0310129
0.0311581
0.0313155
0.0314849
0.0316677
0.0318681
0.0320915
0.0323434
0.0326257
0.0329515
0.0333233
0.0337622
0.034277
0.034899
0.0356488
0.0365614
0.0377005
0.0390915
0.0408218
0.042974
0.0454783
0.0485344
0.0519539
0.0560312
0.0608163
0.0663562
0.0733202
0.0297369
0.0297417
0.0297464
0.0297494
0.0297511
0.0297542
0.0297561
0.0297626
0.0297727
0.0297765
0.0298007
0.029799
0.0298111
0.029802
0.0297995
0.0298013
0.0298092
0.0298163
0.0298251
0.0298358
0.0298505
0.0298685
0.0298913
0.0299178
0.0299501
0.0299858
0.0300268
0.0300725
0.030124
0.0301807
0.0302439
0.0303116
0.0303855
0.0304651
0.0305515
0.0306445
0.0307444
0.0308513
0.0309652
0.0310867
0.0312173
0.0313577
0.0315086
0.0316715
0.0318483
0.0320414
0.0322535
0.0324882
0.0327513
0.0330474
0.0333842
0.0337698
0.0342179
0.0347412
0.0353638
0.0361105
0.0370167
0.0381264
0.0394874
0.0411587
0.0431697
0.0455973
0.048373
0.051723
0.055414
0.0598996
0.0650864
0.071183
0.0791357
0.0301045
0.0301063
0.0301106
0.0301179
0.0301254
0.0301331
0.0301407
0.0301485
0.0301595
0.0301697
0.0301841
0.0301943
0.0302045
0.0302124
0.0302212
0.0302317
0.0302448
0.0302596
0.0302763
0.030295
0.0303166
0.0303412
0.0303695
0.0304014
0.0304377
0.0304782
0.0305233
0.030573
0.030628
0.0306881
0.030754
0.0308256
0.0309032
0.0309874
0.0310786
0.031177
0.0312833
0.0313978
0.0315211
0.0316539
0.0317976
0.0319533
0.0321223
0.0323067
0.0325081
0.0327299
0.0329752
0.0332487
0.0335559
0.0339041
0.0343018
0.0347607
0.035296
0.0359268
0.0366808
0.0375875
0.0386923
0.0400302
0.041661
0.0436084
0.0459168
0.0486192
0.0516827
0.0553354
0.0593121
0.0642881
0.0699435
0.0768026
0.0859369
0.0305598
0.0305727
0.0305776
0.030572
0.0305744
0.030582
0.0305922
0.0306034
0.0306164
0.0306301
0.0306454
0.0306607
0.0306764
0.0306922
0.030709
0.0307272
0.0307472
0.0307691
0.030793
0.0308193
0.030848
0.0308796
0.0309145
0.0309529
0.0309951
0.0310416
0.0310924
0.0311478
0.0312082
0.0312741
0.0313457
0.0314235
0.0315077
0.0315991
0.0316982
0.0318054
0.0319213
0.0320469
0.0321828
0.0323303
0.0324906
0.0326653
0.0328563
0.0330659
0.0332965
0.0335515
0.0338356
0.0341541
0.0345142
0.0349249
0.0353977
0.0359474
0.0365936
0.0373604
0.0382798
0.039385
0.040721
0.0423168
0.0442252
0.0464449
0.0490376
0.0519919
0.0553562
0.0593236
0.06366
0.0692911
0.0754942
0.0834955
0.0941437
0.0311268
0.0311392
0.0311285
0.0311401
0.0311316
0.0311296
0.0311356
0.0311463
0.0311603
0.0311765
0.0311945
0.031214
0.0312347
0.0312567
0.03128
0.031305
0.0313319
0.0313608
0.0313919
0.0314254
0.0314615
0.0315004
0.0315426
0.0315882
0.0316377
0.0316913
0.0317492
0.0318117
0.0318794
0.0319527
0.0320321
0.0321181
0.0322112
0.0323121
0.0324216
0.03254
0.0326685
0.0328081
0.0329598
0.0331252
0.0333057
0.0335036
0.0337209
0.0339608
0.0342264
0.0345221
0.0348536
0.0352281
0.0356549
0.0361457
0.0367156
0.0373833
0.0381728
0.0391116
0.0402337
0.0415705
0.0431615
0.0450238
0.0472037
0.0496812
0.0525509
0.0557569
0.0594792
0.0638029
0.0686552
0.075142
0.0820144
0.0917761
0.104379
0.0317946
0.0317894
0.0318073
0.0318007
0.0317862
0.0317797
0.0317804
0.0317895
0.0318041
0.0318225
0.0318436
0.0318669
0.0318922
0.0319195
0.0319487
0.0319799
0.0320133
0.0320489
0.0320871
0.0321278
0.0321714
0.032218
0.0322679
0.0323215
0.0323791
0.0324408
0.0325069
0.0325779
0.0326543
0.0327368
0.0328257
0.0329218
0.0330258
0.0331385
0.0332607
0.0333931
0.0335371
0.033694
0.0338652
0.0340525
0.0342581
0.0344844
0.0347346
0.0350124
0.0353221
0.0356697
0.0360625
0.0365102
0.0370248
0.0376213
0.0383185
0.0391385
0.0401076
0.0412538
0.0426078
0.0441948
0.0460445
0.0481652
0.0506025
0.053332
0.0564924
0.0599832
0.0641682
0.0689178
0.0745616
0.0821132
0.0899044
0.102438
0.117119
0.0325123
0.0325317
0.032552
0.0325667
0.0326009
0.0325929
0.0326125
0.0325975
0.0325948
0.0326037
0.0326205
0.0326428
0.0326694
0.0326995
0.0327327
0.0327688
0.0328077
0.0328495
0.0328942
0.0329419
0.0329929
0.0330473
0.0331054
0.0331676
0.0332338
0.0333044
0.0333798
0.0334606
0.0335473
0.0336405
0.0337409
0.0338493
0.0339665
0.0340937
0.0342317
0.0343816
0.034545
0.0347237
0.0349195
0.0351348
0.0353723
0.0356355
0.0359283
0.0362558
0.0366241
0.0370408
0.0375159
0.0380617
0.0386932
0.0394285
0.0402885
0.0412963
0.042477
0.0438545
0.0454526
0.047289
0.0493873
0.0517559
0.0544486
0.0574507
0.0609508
0.0648072
0.0696166
0.0749082
0.0817895
0.0905604
0.0999036
0.116512
0.132976
0.033424
0.0334194
0.0334287
0.0334414
0.0334593
0.0334705
0.033482
0.0334903
0.0335003
0.0335145
0.0335337
0.0335576
0.033586
0.0336186
0.0336549
0.0336949
0.0337385
0.0337855
0.0338362
0.0338905
0.0339486
0.0340107
0.0340772
0.034148
0.0342234
0.0343037
0.0343895
0.0344813
0.0345799
0.0346859
0.0348001
0.0349235
0.0350573
0.0352025
0.0353605
0.0355327
0.0357213
0.0359283
0.0361564
0.0364087
0.0366889
0.0370016
0.0373522
0.0377476
0.0381957
0.0387066
0.0392926
0.0399686
0.0407515
0.0416603
0.0427153
0.0439373
0.0453462
0.0469602
0.0487972
0.050873
0.0532127
0.0558361
0.058812
0.0621481
0.0660832
0.0704482
0.0761115
0.0821465
0.0909186
0.100974
0.113329
0.135038
0.153895
0.0344568
0.034464
0.0344747
0.0344885
0.0345046
0.0345205
0.0345366
0.0345528
0.0345704
0.0345906
0.0346141
0.0346414
0.0346728
0.0347082
0.0347477
0.0347913
0.034839
0.0348908
0.0349469
0.0350073
0.0350723
0.0351422
0.0352168
0.0352965
0.0353815
0.0354724
0.0355698
0.0356744
0.0357869
0.0359082
0.0360394
0.0361815
0.036336
0.0365045
0.0366885
0.0368902
0.0371122
0.0373575
0.0376295
0.0379326
0.0382717
0.038653
0.0390836
0.0395724
0.0401292
0.0407657
0.041496
0.0423356
0.043301
0.0444093
0.0456774
0.0471215
0.0487572
0.0505998
0.0526678
0.0549832
0.0575813
0.0605012
0.0638318
0.0676155
0.0721397
0.0772404
0.0840731
0.0912135
0.102733
0.114192
0.132276
0.159195
0.18317
0.0357008
0.0357148
0.0357297
0.0357468
0.0357653
0.0357848
0.0358053
0.035827
0.0358502
0.0358758
0.0359041
0.0359356
0.0359709
0.03601
0.0360533
0.0361009
0.036153
0.0362098
0.0362715
0.0363383
0.0364106
0.0364881
0.0365712
0.0366604
0.0367562
0.0368592
0.0369701
0.0370899
0.0372194
0.0373597
0.0375123
0.0376786
0.0378604
0.0380598
0.038279
0.038521
0.0387892
0.0390877
0.0394211
0.0397952
0.0402164
0.0406924
0.041232
0.0418449
0.0425426
0.0433363
0.0442395
0.0452664
0.0464308
0.0477469
0.049228
0.0508882
0.0527433
0.0548129
0.0571231
0.0597091
0.0626225
0.0659279
0.0697396
0.0741511
0.0794969
0.0856819
0.094122
0.103006
0.118287
0.131875
0.159686
0.190191
0.228647
0.0372046
0.0372236
0.037243
0.0372644
0.037287
0.0373107
0.0373358
0.0373624
0.037391
0.0374219
0.0374555
0.0374922
0.0375324
0.0375765
0.0376248
0.0376777
0.0377355
0.0377985
0.0378672
0.0379416
0.0380217
0.0381082
0.0382015
0.0383024
0.0384114
0.0385295
0.0386577
0.0387969
0.0389487
0.0391144
0.0392958
0.039495
0.0397146
0.039957
0.0402257
0.0405245
0.0408579
0.0412311
0.0416501
0.0421216
0.0426531
0.0432533
0.0439311
0.0446963
0.0455593
0.0465305
0.0476209
0.0488403
0.0502028
0.0517214
0.0534093
0.0552841
0.0573684
0.0596915
0.062293
0.0652254
0.0685618
0.0724002
0.07689
0.082201
0.0887165
0.0965213
0.107192
0.118899
0.139144
0.157381
0.198301
0.232383
0.306995
0.0390306
0.0390545
0.0390789
0.0391052
0.0391328
0.0391615
0.0391918
0.039224
0.0392584
0.0392953
0.039335
0.0393781
0.0394248
0.0394757
0.0395312
0.0395917
0.0396577
0.0397294
0.039807
0.0398911
0.0399823
0.0400813
0.0401889
0.040306
0.0404336
0.0405729
0.0407253
0.0408924
0.0410758
0.0412778
0.0415007
0.0417474
0.0420211
0.0423252
0.0426639
0.0430421
0.0434651
0.0439388
0.0444697
0.0450647
0.0457314
0.0464776
0.0473118
0.0482423
0.0492779
0.050428
0.0517024
0.0531122
0.05467
0.0563922
0.0582969
0.0604131
0.0627736
0.0654208
0.0684111
0.0718195
0.0757499
0.0803461
0.0858136
0.0924312
0.100653
0.110906
0.124726
0.14103
0.168243
0.194365
0.252799
0.299711
0.407371
0.0412646
0.0412941
0.0413243
0.0413567
0.0413903
0.0414253
0.0414621
0.041501
0.0415425
0.041587
0.0416348
0.0416865
0.0417424
0.041803
0.0418691
0.0419406
0.0420179
0.0421019
0.0421933
0.0422928
0.0424013
0.04252
0.0426498
0.0427921
0.0429484
0.0431202
0.0433095
0.0435184
0.0437491
0.0440046
0.0442877
0.0446019
0.0449511
0.0453391
0.0457708
0.0462511
0.0467854
0.0473794
0.0480392
0.0487711
0.0495818
0.0504784
0.0514684
0.0525599
0.0537621
0.0550852
0.0565415
0.0581458
0.0599165
0.0618761
0.0640536
0.0664852
0.0692176
0.0723105
0.0758449
0.0799276
0.0847108
0.0904066
0.0973139
0.105863
0.116656
0.13062
0.149041
0.173144
0.209768
0.251533
0.330021
0.395094
0.573048
0.044028
0.0440654
0.0441035
0.044144
0.0441861
0.0442298
0.0442758
0.0443244
0.0443763
0.0444319
0.0444917
0.0445564
0.0446259
0.0447007
0.0447818
0.0448698
0.0449656
0.0450702
0.0451844
0.0453095
0.0454467
0.0455972
0.0457626
0.0459447
0.0461451
0.0463661
0.0466098
0.0468788
0.0471758
0.0475038
0.0478661
0.0482663
0.048708
0.0491954
0.0497328
0.0503248
0.0509765
0.0516931
0.0524802
0.0533441
0.0542917
0.0553305
0.0564693
0.0577184
0.0590897
0.0605975
0.0622592
0.0640959
0.0661338
0.0684049
0.0709503
0.0738207
0.0770818
0.0808201
0.0851414
0.0901991
0.0962357
0.103569
0.11265
0.124126
0.138925
0.158489
0.184399
0.221013
0.27141
0.338007
0.436112
0.540979
0.759135
0.0475032
0.0475532
0.0476043
0.0476581
0.0477139
0.0477721
0.0478332
0.0478979
0.0479662
0.0480388
0.0481166
0.0482003
0.0482906
0.0483885
0.0484948
0.0486105
0.0487367
0.0488744
0.0490249
0.0491895
0.0493698
0.0495672
0.0497834
0.0500204
0.0502801
0.0505646
0.0508762
0.0512176
0.0515913
0.0520002
0.0524476
0.0529367
0.053471
0.0540546
0.0546918
0.0553874
0.0561466
0.0569754
0.0578804
0.0588695
0.0599514
0.0611364
0.0624364
0.0638656
0.0654408
0.0671819
0.0691131
0.0712639
0.0736708
0.0763787
0.0794455
0.0829424
0.0869653
0.0916369
0.0971137
0.103632
0.111574
0.121425
0.133884
0.149943
0.171135
0.199473
0.238347
0.292752
0.365428
0.460119
0.593084
0.758157
0.935425
0.0519755
0.0520474
0.0521201
0.0521955
0.052273
0.0523532
0.052437
0.0525252
0.0526186
0.0527181
0.0528243
0.0529383
0.0530608
0.053193
0.0533357
0.0534901
0.0536573
0.0538384
0.0540349
0.0542479
0.054479
0.0547296
0.0550015
0.0552965
0.0556163
0.0559632
0.0563394
0.0567474
0.0571898
0.0576698
0.0581907
0.058756
0.0593701
0.0600376
0.0607639
0.0615552
0.0624183
0.0633612
0.0643929
0.065524
0.0667664
0.0681341
0.0696436
0.0713141
0.0731685
0.0752344
0.0775453
0.0801424
0.0830773
0.0864135
0.0902366
0.0946483
0.0997952
0.105856
0.113077
0.121872
0.132815
0.146669
0.164543
0.188105
0.219721
0.262556
0.32155
0.401544
0.501308
0.639713
0.812528
0.97778
1.09521
0.0578508
0.0579532
0.0580566
0.0581629
0.0582715
0.0583831
0.0584986
0.058619
0.0587452
0.058878
0.0590184
0.0591671
0.0593253
0.0594937
0.0596736
0.0598658
0.0600716
0.0602921
0.0605286
0.0607824
0.061055
0.061348
0.0616631
0.0620023
0.0623677
0.0627618
0.0631872
0.0636469
0.0641444
0.0646834
0.0652684
0.0659042
0.0665964
0.0673515
0.0681766
0.0690799
0.0700707
0.0711598
0.0723592
0.073683
0.0751473
0.0767711
0.0785767
0.0805904
0.0828441
0.0853766
0.0882356
0.0914807
0.0951884
0.0994515
0.104404
0.110194
0.117059
0.125272
0.135272
0.147771
0.163603
0.184094
0.211098
0.247209
0.295806
0.361281
0.44973
0.558805
0.70205
0.881492
1.0507
1.1728
1.23852
0.0656366
0.0657747
0.0659125
0.0660517
0.0661919
0.0663339
0.0664787
0.0666273
0.0667807
0.0669398
0.0671057
0.0672792
0.0674616
0.0676537
0.0678568
0.0680721
0.0683009
0.0685445
0.0688044
0.0690825
0.0693804
0.0697002
0.0700443
0.0704151
0.0708155
0.0712487
0.0717184
0.0722285
0.0727837
0.0733892
0.0740507
0.0747749
0.0755693
0.0764424
0.0774036
0.078464
0.0796357
0.0809332
0.0823727
0.0839731
0.0857566
0.0877495
0.0899831
0.0924951
0.0953315
0.0985499
0.102222
0.106438
0.111319
0.117004
0.123719
0.131684
0.141303
0.153055
0.167732
0.186549
0.210727
0.242801
0.285219
0.34159
0.416469
0.515134
0.636364
0.787146
0.971514
1.14465
1.26451
1.33427
1.30894
0.0759108
0.0760705
0.0762311
0.076392
0.076551
0.0767094
0.0768688
0.0770306
0.077196
0.0773663
0.0775426
0.0777263
0.0779184
0.0781204
0.0783335
0.0785593
0.0787997
0.0790564
0.0793315
0.0796273
0.0799463
0.0802913
0.0806653
0.0810719
0.0815148
0.0819984
0.0825275
0.0831076
0.0837447
0.0844459
0.0852187
0.0860721
0.0870159
0.0880614
0.0892214
0.0905106
0.091946
0.0935469
0.0953363
0.097341
0.0995929
0.10213
0.105
0.108259
0.111979
0.11625
0.121187
0.126935
0.133693
0.141684
0.151313
0.162906
0.177221
0.195325
0.218223
0.248432
0.287127
0.339096
0.405813
0.493066
0.605874
0.740147
0.903084
1.09029
1.26381
1.37464
1.43212
1.41061
1.31294
0.0894156
0.0895542
0.089698
0.0898469
0.0899997
0.0901563
0.0903173
0.0904835
0.0906555
0.0908344
0.0910212
0.0912171
0.0914206
0.0916341
0.09186
0.0921006
0.0923585
0.0926361
0.0929362
0.0932619
0.0936165
0.0940038
0.0944278
0.0948932
0.0954052
0.0959696
0.0965928
0.0972824
0.0980463
0.098894
0.0998359
0.100884
0.102052
0.103355
0.104811
0.106442
0.108271
0.110327
0.112644
0.115263
0.118232
0.121613
0.125481
0.129925
0.135069
0.141063
0.148099
0.156432
0.166407
0.178387
0.193187
0.211365
0.234526
0.264576
0.302134
0.35279
0.415507
0.498563
0.601295
0.73041
0.884147
1.05606
1.25258
1.40669
1.4968
1.53016
1.50791
1.4097
1.06818
0.107327
0.107435
0.107551
0.107676
0.10781
0.107951
0.108102
0.108262
0.108431
0.108613
0.108806
0.109014
0.109237
0.109476
0.109734
0.110013
0.110316
0.110643
0.110999
0.111387
0.111812
0.112279
0.112794
0.113364
0.113994
0.114695
0.115473
0.11634
0.117306
0.118386
0.119593
0.120945
0.122461
0.124166
0.126084
0.12825
0.1307
0.133478
0.136641
0.140256
0.144407
0.149193
0.154751
0.161227
0.168864
0.177916
0.188712
0.20182
0.217771
0.237351
0.262282
0.293511
0.333426
0.38557
0.447732
0.532121
0.631529
0.755217
0.910207
1.07347
1.27405
1.45734
1.56466
1.61633
1.61501
1.58821
1.47839
1.10445
0.780719
0.131672
0.131764
0.13187
0.131988
0.13212
0.132264
0.132422
0.132595
0.132783
0.132989
0.133214
0.133459
0.133727
0.13402
0.134341
0.134692
0.135077
0.1355
0.135963
0.13647
0.137027
0.137641
0.13832
0.139074
0.139912
0.140845
0.141886
0.143051
0.144354
0.145817
0.147461
0.149314
0.151406
0.153776
0.156468
0.159536
0.163044
0.167072
0.171718
0.177105
0.183386
0.190747
0.199476
0.209797
0.222314
0.237376
0.255685
0.278676
0.306608
0.342253
0.387463
0.443489
0.513324
0.600863
0.701849
0.831447
0.983343
1.15147
1.35792
1.55077
1.67243
1.71802
1.7187
1.69681
1.65869
1.50959
1.0757
0.766948
0.64456
0.166601
0.16672
0.166859
0.167017
0.167196
0.167394
0.167612
0.167853
0.168118
0.168408
0.168726
0.169074
0.169455
0.169872
0.170329
0.17083
0.171379
0.171979
0.172637
0.17336
0.174157
0.175038
0.176014
0.177098
0.178304
0.179647
0.18115
0.182832
0.184725
0.186858
0.189274
0.192017
0.195146
0.198728
0.202848
0.207608
0.213134
0.219593
0.227174
0.23615
0.246829
0.259597
0.275163
0.293728
0.317096
0.345179
0.379949
0.424916
0.477112
0.545758
0.627487
0.723931
0.838534
0.972083
1.12563
1.31441
1.52058
1.724
1.83244
1.86202
1.84202
1.80519
1.76057
1.66579
1.44245
0.997318
0.728352
0.63896
0.594365
0.221735
0.221969
0.222233
0.222527
0.22285
0.223202
0.223586
0.224003
0.224454
0.224944
0.225476
0.226052
0.226676
0.227349
0.228078
0.228871
0.229736
0.230681
0.231718
0.232857
0.234111
0.235495
0.237025
0.238719
0.240603
0.242702
0.245053
0.247704
0.250714
0.25415
0.258096
0.262651
0.267938
0.274106
0.281341
0.289876
0.299995
0.312088
0.32657
0.344115
0.365369
0.391229
0.423371
0.461531
0.510793
0.568302
0.639749
0.729819
0.823276
0.95097
1.08036
1.222
1.38999
1.5774
1.81277
1.99943
2.06999
2.06906
2.02724
1.95756
1.8623
1.70835
1.5004
1.21129
0.821916
0.646678
0.628927
0.646434
0.661557
0.324951
0.325445
0.325987
0.326576
0.327204
0.327873
0.328587
0.329349
0.330163
0.331034
0.331968
0.33297
0.334047
0.335207
0.336459
0.337812
0.339279
0.340873
0.342611
0.344508
0.346587
0.348873
0.351385
0.354167
0.357269
0.360763
0.364759
0.369451
0.374984
0.381529
0.389297
0.398538
0.409567
0.422761
0.438594
0.457667
0.480672
0.508591
0.542359
0.583532
0.633423
0.69376
0.767229
0.853503
0.958627
1.07563
1.21053
1.36646
1.50865
1.70419
1.85104
2.01635
2.27896
2.39469
2.39092
2.34163
2.25004
2.15775
1.95644
1.6572
1.35663
1.0513
0.795684
0.625545
0.550128
0.590841
0.723373
0.800721
0.834688
0.567719
0.568812
0.569962
0.571175
0.572454
0.573804
0.575231
0.576741
0.57834
0.580034
0.581832
0.583744
0.58578
0.587952
0.590281
0.592772
0.595473
0.598358
0.601534
0.604936
0.6087
0.612841
0.617315
0.622526
0.628597
0.636102
0.645756
0.657846
0.672815
0.691137
0.71343
0.740339
0.772725
0.811538
0.857871
0.913114
0.978588
1.05593
1.14681
1.2522
1.37488
1.51286
1.6672
1.83692
2.01282
2.20065
2.38263
2.55649
2.72152
2.84554
2.97128
2.9724
2.89081
2.71477
2.53409
2.29051
1.96705
1.55212
1.24322
0.910921
0.664202
0.572237
0.517802
0.49797
0.519388
0.637939
0.875326
1.08152
1.16127
1.46825
1.47037
1.47251
1.47469
1.47702
1.47953
1.48219
1.485
1.48794
1.49103
1.49424
1.49762
1.50114
1.50485
1.50883
1.51289
1.51761
1.52201
1.52783
1.53279
1.53985
1.5466
1.55437
1.5719
1.59996
1.63871
1.68804
1.74832
1.81994
1.90317
1.9985
2.10608
2.2262
2.35891
2.50372
2.66068
2.82869
3.00642
3.19154
3.38097
3.57103
3.75648
3.9306
4.08908
4.21645
4.31531
4.36121
4.33921
4.27012
4.1151
3.82325
3.39512
2.85368
2.3407
1.88552
1.58322
1.45457
1.24346
1.10382
1.0364
0.946662
0.893943
0.868916
0.87677
0.927373
1.03332
1.20064
1.61002
1.88146
8.59511
8.59411
8.5832
8.5681
8.55584
8.54425
8.53251
8.52023
8.50714
8.4932
8.47823
8.4623
8.44526
8.42716
8.40798
8.38751
8.36616
8.34316
8.3197
8.29283
8.27224
8.2426
8.21853
8.18619
8.15227
8.11704
8.08024
8.04161
8.00087
7.95776
7.91202
7.86333
7.81149
7.75596
7.69654
7.63275
7.56421
7.49042
7.41096
7.3256
7.23414
7.13707
7.03479
6.93003
6.82416
6.72053
6.63008
6.56233
6.51521
6.47706
6.44055
6.40446
6.36873
6.33353
6.29908
6.2656
6.23306
6.20129
6.17029
6.14019
6.11109
6.08312
6.05639
6.03097
6.00699
5.98445
5.9634
5.94395
5.92625
0.0296294
0.0296255
0.0296175
0.0296056
0.029596
0.029578
0.0295609
0.0295412
0.0295322
0.0295238
0.0295037
0.0295001
0.0295085
0.0295146
0.0295004
0.0294758
0.0294839
0.0294858
0.0294707
0.029448
0.02947
0.0294911
0.0294594
0.0294546
0.0294324
0.0294074
0.0294281
0.0294414
0.0294559
0.029446
0.0294476
0.029459
0.0294713
0.0294487
0.0294399
0.0294201
0.0294175
0.0294075
0.0293934
0.0293947
0.0293635
0.0293644
0.0293524
0.0293325
0.0293319
0.0293098
0.0292764
0.0292574
0.0292386
0.02921
0.0291809
0.0291632
0.0291638
0.0291643
0.029171
0.0291813
0.0291857
0.0291797
0.0291707
0.0299223
0.0299139
0.029899
0.0298853
0.0298694
0.0298517
0.0298371
0.0298243
0.029817
0.0298067
0.0297945
0.0297931
0.0297875
0.0297734
0.0297458
0.0297369
0.0297389
0.0297361
0.0297114
0.0297072
0.0297253
0.0297289
0.0296956
0.0296925
0.0296606
0.0296447
0.0296637
0.0296805
0.029684
0.0296722
0.0296804
0.0296907
0.0296987
0.0296803
0.0296729
0.0296582
0.029648
0.0296408
0.0296316
0.0296267
0.0296089
0.0295985
0.0295899
0.0295753
0.0295713
0.0295644
0.0295457
0.0295204
0.0295045
0.0294837
0.0294585
0.0294334
0.0294172
0.0294055
0.0294081
0.0294092
0.0294153
0.0294186
0.029423
0.03026
0.0302483
0.0302318
0.0302181
0.030203
0.0301895
0.0301781
0.0301674
0.0301569
0.0301431
0.0301293
0.0301165
0.030096
0.0300726
0.0300511
0.0300504
0.0300457
0.0300327
0.0300136
0.0300182
0.0300286
0.0300178
0.0299825
0.0299768
0.0299399
0.0299321
0.0299487
0.0299664
0.0299617
0.0299494
0.0299617
0.0299699
0.0299745
0.0299604
0.0299539
0.0299421
0.0299304
0.0299219
0.0299148
0.0299098
0.0298992
0.0298886
0.0298786
0.0298694
0.0298563
0.0298549
0.0298482
0.0298346
0.0298164
0.0297999
0.0297838
0.0297638
0.0297465
0.0297284
0.02972
0.0297233
0.0297243
0.0297257
0.0297316
0.0306623
0.0306505
0.0306343
0.0306214
0.0306074
0.0305944
0.0305808
0.0305659
0.030549
0.0305294
0.0305089
0.0304867
0.0304623
0.0304422
0.0304292
0.0304261
0.0304096
0.0303887
0.0303774
0.0303792
0.0303821
0.0303608
0.0303254
0.0303146
0.0302771
0.0302759
0.0302894
0.0303053
0.0302947
0.0302825
0.0302965
0.0303025
0.0303051
0.0302949
0.0302893
0.03028
0.0302687
0.0302593
0.0302525
0.0302484
0.0302422
0.0302335
0.0302251
0.0302185
0.0302107
0.030207
0.0302038
0.0301989
0.0301907
0.0301743
0.0301556
0.030141
0.0301261
0.030113
0.0301002
0.0300991
0.0300942
0.0301017
0.030101
0.0311454
0.0311328
0.0311152
0.0311003
0.0310833
0.0310658
0.0310463
0.0310248
0.0310013
0.0309764
0.0309512
0.0309265
0.0309041
0.0308872
0.0308741
0.0308605
0.0308364
0.0308183
0.0308129
0.0308127
0.030801
0.030766
0.0307322
0.0307156
0.0306801
0.0306826
0.030694
0.0307063
0.0306915
0.0306797
0.0306936
0.030698
0.0306993
0.0306921
0.0306879
0.0306808
0.0306712
0.0306622
0.0306558
0.0306526
0.0306492
0.0306441
0.0306383
0.0306337
0.0306298
0.0306287
0.0306299
0.0306285
0.0306271
0.0306242
0.0306167
0.0305983
0.0305906
0.0305735
0.0305687
0.0305661
0.030563
0.0305569
0.0305567
0.0317172
0.0317016
0.0316795
0.0316599
0.0316372
0.0316136
0.0315879
0.031561
0.0315331
0.0315053
0.0314786
0.0314539
0.0314322
0.0314131
0.0313937
0.0313717
0.0313474
0.031334
0.031328
0.0313174
0.03129
0.0312475
0.0312149
0.031193
0.0311614
0.0311655
0.0311743
0.0311822
0.0311643
0.031153
0.0311657
0.0311687
0.0311692
0.0311644
0.0311616
0.0311569
0.0311497
0.0311423
0.0311368
0.0311345
0.0311354
0.0311323
0.0311295
0.0311293
0.0311284
0.0311263
0.0311198
0.0311369
0.0311382
0.0311298
0.031144
0.0311461
0.0311447
0.0311416
0.0311394
0.031138
0.031136
0.031128
0.031126
0.0323885
0.0323683
0.0323406
0.0323154
0.0322871
0.0322582
0.032228
0.0321974
0.0321668
0.0321372
0.0321089
0.0320824
0.0320574
0.0320327
0.0320071
0.0319815
0.0319595
0.0319461
0.031932
0.0319072
0.0318669
0.0318211
0.0317887
0.0317627
0.0317354
0.0317392
0.0317449
0.0317482
0.0317278
0.0317169
0.0317279
0.0317297
0.0317296
0.0317267
0.0317255
0.0317233
0.0317191
0.0317139
0.0317103
0.0317105
0.0317057
0.0317162
0.0317165
0.03171
0.0317149
0.031726
0.0317241
0.0317182
0.0317412
0.0317366
0.0317406
0.0317412
0.0317653
0.0317722
0.0317775
0.0317815
0.0317879
0.0317898
0.0317932
0.03318
0.0331552
0.0331219
0.0330916
0.0330586
0.0330253
0.0329912
0.0329573
0.0329237
0.0328909
0.032859
0.032828
0.0327975
0.0327673
0.0327378
0.0327107
0.0326877
0.0326675
0.0326404
0.0326015
0.0325525
0.0325057
0.0324721
0.0324433
0.0324196
0.0324216
0.0324241
0.0324221
0.0323999
0.032389
0.0323977
0.0323987
0.0323982
0.0323969
0.0323975
0.032398
0.0323966
0.0323953
0.0323939
0.0323898
0.0323988
0.0323947
0.0324065
0.0324135
0.0324092
0.0324184
0.032437
0.0324301
0.0324389
0.0324445
0.0324525
0.032469
0.0325026
0.0325024
0.0324924
0.0324872
0.0324891
0.0324895
0.0325001
0.0341206
0.0340913
0.0340527
0.0340175
0.0339797
0.0339418
0.0339032
0.0338648
0.0338265
0.0337886
0.0337513
0.0337146
0.0336786
0.0336436
0.0336104
0.0335794
0.0335498
0.0335175
0.033476
0.0334255
0.0333711
0.0333237
0.0332881
0.0332574
0.0332363
0.0332364
0.0332336
0.0332258
0.0332023
0.033191
0.0331971
0.0331975
0.033197
0.033197
0.0331987
0.0332016
0.0332061
0.0332043
0.0332068
0.0332107
0.033211
0.0332274
0.0332261
0.0332531
0.0332477
0.0332475
0.0332823
0.0332785
0.0332824
0.0332888
0.0332991
0.033312
0.0333411
0.0333542
0.0333942
0.0334058
0.0334177
0.0334258
0.0334341
0.0352447
0.0352107
0.0351663
0.0351255
0.0350821
0.0350385
0.0349941
0.0349496
0.0349051
0.0348609
0.0348172
0.0347741
0.0347321
0.0346912
0.0346515
0.0346122
0.0345708
0.0345241
0.0344695
0.0344102
0.0343524
0.0343037
0.0342653
0.0342333
0.0342131
0.0342092
0.0342004
0.0341869
0.0341624
0.0341503
0.0341535
0.0341535
0.034153
0.0341537
0.0341571
0.0341628
0.0341676
0.0341782
0.0341778
0.0341931
0.0341895
0.0342025
0.0342078
0.0342262
0.0342528
0.0342475
0.0342795
0.0342907
0.0342985
0.0343063
0.0343176
0.0343305
0.0343518
0.0343705
0.0343929
0.0344076
0.0344211
0.034427
0.0344442
0.036594
0.0365546
0.0365035
0.0364561
0.0364058
0.0363551
0.0363035
0.0362515
0.0361994
0.0361475
0.036096
0.036045
0.0359946
0.0359446
0.0358943
0.0358422
0.0357864
0.0357253
0.0356596
0.0355935
0.0355326
0.0354814
0.0354396
0.0354059
0.0353844
0.0353744
0.0353589
0.0353401
0.0353145
0.0353011
0.0353014
0.035301
0.0353008
0.0353023
0.0353075
0.0353155
0.0353266
0.0353355
0.0353423
0.0353578
0.0353642
0.035377
0.0353884
0.0354059
0.0354296
0.0354368
0.0354643
0.0354875
0.035506
0.0355217
0.0355375
0.0355538
0.0355732
0.035593
0.0356134
0.0356309
0.0356485
0.035658
0.0356811
0.0382227
0.0381766
0.0381176
0.038062
0.0380034
0.0379439
0.0378831
0.0378218
0.03776
0.037698
0.037636
0.0375739
0.0375115
0.0374483
0.0373834
0.0373159
0.0372449
0.0371706
0.0370952
0.0370229
0.0369577
0.0369023
0.0368562
0.0368193
0.0367937
0.0367758
0.0367532
0.0367292
0.0367023
0.036687
0.0366844
0.0366836
0.0366839
0.0366865
0.0366933
0.036704
0.0367186
0.0367339
0.0367447
0.036761
0.0367825
0.0367947
0.036812
0.0368328
0.0368579
0.0368752
0.0369007
0.0369283
0.0369547
0.0369789
0.0370018
0.0370241
0.0370469
0.0370696
0.0370924
0.0371138
0.0371359
0.0371501
0.0371799
0.0402026
0.0401481
0.0400792
0.0400132
0.0399438
0.0398729
0.0398002
0.0397264
0.0396515
0.0395758
0.0394993
0.0394219
0.0393433
0.0392632
0.0391811
0.0390967
0.0390102
0.0389231
0.038838
0.0387583
0.0386868
0.0386251
0.0385728
0.0385302
0.0384976
0.0384702
0.03844
0.0384107
0.0383818
0.038364
0.0383585
0.0383573
0.0383581
0.0383623
0.0383712
0.0383848
0.0384031
0.038424
0.0384435
0.0384598
0.0385002
0.0385166
0.0385384
0.0385646
0.0385938
0.03862
0.0386486
0.0386797
0.0387116
0.0387429
0.0387733
0.0388028
0.0388318
0.0388602
0.0388883
0.0389151
0.038943
0.0389631
0.0390006
0.0426328
0.0425668
0.0424849
0.0424049
0.0423208
0.0422343
0.0421452
0.0420542
0.0419614
0.0418671
0.0417712
0.0416738
0.0415749
0.0414744
0.0413724
0.0412694
0.0411664
0.0410651
0.0409682
0.0408783
0.0407973
0.0407262
0.0406648
0.0406131
0.0405702
0.0405317
0.0404933
0.0404583
0.0404265
0.0404055
0.0403968
0.040395
0.0403967
0.0404028
0.0404145
0.0404317
0.0404544
0.0404808
0.0405096
0.0405322
0.040576
0.0406063
0.0406374
0.040672
0.0407092
0.0407454
0.0407819
0.0408196
0.0408582
0.040897
0.0409354
0.0409732
0.0410104
0.0410467
0.0410826
0.0411174
0.0411529
0.041181
0.0412285
0.0456606
0.0455774
0.0454768
0.0453766
0.0452714
0.0451625
0.0450502
0.0449349
0.0448171
0.0446971
0.0445752
0.0444517
0.0443268
0.044201
0.0440749
0.0439495
0.0438261
0.0437067
0.0435934
0.0434884
0.0433929
0.0433077
0.0432327
0.0431675
0.0431107
0.043059
0.0430115
0.0429696
0.0429336
0.0429083
0.0428961
0.0428937
0.0428965
0.0429052
0.0429203
0.0429423
0.0429706
0.0430038
0.0430417
0.0430753
0.0431229
0.0431664
0.0432097
0.0432556
0.043304
0.0433528
0.0434016
0.0434506
0.0435
0.0435494
0.0435987
0.0436475
0.0436958
0.0437433
0.0437903
0.0438365
0.0438831
0.043923
0.0439838
0.0495291
0.0494178
0.049288
0.0491561
0.0490179
0.0488744
0.0487263
0.0485743
0.0484191
0.0482614
0.0481019
0.0479412
0.04778
0.0476192
0.0474598
0.0473032
0.0471509
0.0470047
0.0468665
0.0467379
0.04662
0.0465133
0.0464178
0.0463329
0.0462574
0.0461898
0.0461308
0.0460797
0.0460372
0.0460061
0.0459898
0.0459865
0.0459907
0.0460029
0.0460229
0.0460511
0.046087
0.0461293
0.0461779
0.0462259
0.0462827
0.0463407
0.0463996
0.0464607
0.0465243
0.0465895
0.0466553
0.0467215
0.0467877
0.0468539
0.0469199
0.0469855
0.0470507
0.0471153
0.0471796
0.0472434
0.0473075
0.0473661
0.0474465
0.0546589
0.0544995
0.054322
0.0541385
0.0539467
0.0537467
0.0535399
0.0533276
0.0531112
0.0528917
0.0526706
0.0524492
0.0522287
0.0520107
0.0517967
0.0515883
0.0513873
0.0511956
0.0510147
0.0508462
0.0506909
0.0505493
0.0504213
0.0503066
0.0502046
0.0501166
0.0500405
0.0499757
0.0499228
0.0498833
0.0498616
0.049857
0.0498628
0.0498801
0.0499077
0.049945
0.0499919
0.0500472
0.0501107
0.0501776
0.0502516
0.05033
0.0504111
0.050495
0.0505821
0.0506718
0.0507632
0.0508558
0.0509491
0.0510427
0.0511364
0.0512301
0.0513235
0.0514168
0.05151
0.0516033
0.0516968
0.0517867
0.0518974
0.0616865
0.0614465
0.0611976
0.060944
0.0606755
0.0603928
0.0600979
0.0597929
0.0594799
0.0591615
0.05884
0.0585183
0.0581989
0.0578828
0.0575728
0.0572713
0.0569807
0.0567033
0.0564414
0.0561966
0.05597
0.0557624
0.0555744
0.0554063
0.0552597
0.0551343
0.0550264
0.0549358
0.0548629
0.0548082
0.054777
0.0547695
0.0547773
0.0548024
0.0548431
0.0548974
0.0549642
0.0550429