/*--------------------------------*- C++ -*----------------------------------*\
| =========                 |                                                 |
| \\      /  F ield         | OpenFOAM: The Open Source CFD Toolbox           |
|  \\    /   O peration     | Version:  2312                                  |
|   \\  /    A nd           | Website:  www.openfoam.com                      |
|    \\/     M anipulation  |                                                 |
\*---------------------------------------------------------------------------*/
FoamFile
{
    version     2.0;
    format      ascii;
    arch        "LSB;label=32;scalar=64";
    class       volScalarField;
    location    "400";
    object      p;
}
// * * * * * * * * * * * * * * * * * * * * * * * * * * * * * * * * * * * * * //

dimensions      [0 2 -2 0 0 0 0];

internalField   nonuniform List<scalar> 
76025
(
7.73684e-05
6.80162e-05
5.85928e-05
4.90934e-05
3.96135e-05
3.00931e-05
2.01079e-05
1.03555e-05
3.94873e-07
-9.45184e-06
-1.93477e-05
-2.93011e-05
-3.93259e-05
-4.93156e-05
-5.93724e-05
-6.95572e-05
-7.94763e-05
-8.9629e-05
-9.96285e-05
-0.000109651
-0.000119516
-0.000129518
-0.000139332
-0.000148962
-0.000158604
-0.00016808
-0.000177506
-0.000186959
-0.000196013
-0.000205219
-0.00021391
-0.000222566
-0.000231005
-0.000239404
-0.000247415
-0.000255267
-0.000262707
-0.000270425
-0.000277844
-0.000284796
-0.000291342
-0.000297745
-0.000304316
-0.000310344
-0.000315873
-0.000321113
-0.000326274
-0.000331082
-0.000335121
-0.000338966
-0.000342561
-0.000345662
-0.000348407
-0.000350667
-0.00035223
-0.000352769
-0.000353354
-0.000352928
-0.000351988
-0.000350381
-0.000347676
-0.000344162
-0.000339107
-0.000333229
-0.00032587
-0.000316377
-0.000306939
-0.000296338
-0.000279771
7.69344e-05
6.72185e-05
5.74507e-05
4.75531e-05
3.75479e-05
2.74267e-05
1.72529e-05
7.02617e-06
-3.26734e-06
-1.3605e-05
-2.39899e-05
-3.44092e-05
-4.48491e-05
-5.53199e-05
-6.57779e-05
-7.62207e-05
-8.66829e-05
-9.71049e-05
-0.000107542
-0.000117882
-0.000128211
-0.000138448
-0.000148586
-0.000158602
-0.000168549
-0.000178417
-0.000188174
-0.000197724
-0.000207117
-0.0002164
-0.000225475
-0.000234485
-0.000243277
-0.000251813
-0.000260153
-0.000268233
-0.000276145
-0.000283898
-0.000291379
-0.000298622
-0.000305545
-0.000312267
-0.000318758
-0.000324864
-0.000330684
-0.000336202
-0.000341458
-0.000346293
-0.000350736
-0.000354895
-0.000358732
-0.000362126
-0.000365083
-0.000367554
-0.000369437
-0.000370705
-0.000371555
-0.000371665
-0.00037111
-0.000369832
-0.000367696
-0.000364686
-0.000360462
-0.00035519
-0.000348687
-0.000340812
-0.000331977
-0.000321525
-0.00030792
7.6221e-05
6.60845e-05
5.58694e-05
4.54989e-05
3.50057e-05
2.44482e-05
1.38274e-05
3.13566e-06
-7.61889e-06
-1.84294e-05
-2.92757e-05
-4.01431e-05
-5.10313e-05
-6.19273e-05
-7.28102e-05
-8.36965e-05
-9.45655e-05
-0.000105408
-0.000116212
-0.000126963
-0.000137645
-0.000148239
-0.000158742
-0.000169141
-0.000179438
-0.000189624
-0.000199655
-0.000209526
-0.000219248
-0.000228812
-0.000238221
-0.000247459
-0.000256475
-0.000265265
-0.000273836
-0.00028218
-0.000290314
-0.000298231
-0.000305924
-0.000313376
-0.000320548
-0.000327456
-0.000334103
-0.000340466
-0.000346534
-0.00035229
-0.000357736
-0.000362846
-0.00036761
-0.000372032
-0.000376104
-0.000379777
-0.000383029
-0.000385828
-0.00038812
-0.000389868
-0.000391098
-0.000391721
-0.000391699
-0.000390983
-0.000389488
-0.000387158
-0.000383843
-0.000379536
-0.000374169
-0.000367671
-0.000360037
-0.000351002
-0.000339576
7.52304e-05
6.46184e-05
5.39176e-05
4.3059e-05
3.20863e-05
2.10381e-05
9.92309e-06
-1.25501e-06
-1.24876e-05
-2.37656e-05
-3.50769e-05
-4.6411e-05
-5.77589e-05
-6.911e-05
-8.04532e-05
-9.17823e-05
-0.000103084
-0.000114347
-0.000125558
-0.000136707
-0.000147776
-0.000158757
-0.000169637
-0.000180404
-0.000191048
-0.000201557
-0.000211918
-0.000222121
-0.000232157
-0.000242018
-0.000251696
-0.000261176
-0.000270442
-0.000279485
-0.000288298
-0.000296885
-0.00030525
-0.000313391
-0.0003213
-0.000328958
-0.000336352
-0.000343479
-0.000350341
-0.000356926
-0.000363215
-0.000369203
-0.000374886
-0.000380253
-0.000385289
-0.000389987
-0.000394342
-0.000398327
-0.000401916
-0.000405081
-0.000407787
-0.000410003
-0.000411717
-0.000412884
-0.000413457
-0.000413395
-0.000412645
-0.000411154
-0.00040885
-0.000405694
-0.000401647
-0.000396668
-0.000390654
-0.000383541
-0.000374539
7.39225e-05
6.28096e-05
5.16068e-05
4.02402e-05
2.87568e-05
1.71946e-05
5.56916e-06
-6.11361e-06
-1.78474e-05
-2.96229e-05
-4.1429e-05
-5.3254e-05
-6.50865e-05
-7.69157e-05
-8.87306e-05
-0.00010052
-0.000112271
-0.000123974
-0.000135614
-0.00014718
-0.000158658
-0.000170037
-0.000181302
-0.000192442
-0.000203446
-0.000214304
-0.000225003
-0.000235531
-0.000245879
-0.000256038
-0.000265997
-0.000275748
-0.000285278
-0.000294576
-0.000303636
-0.000312466
-0.000321066
-0.000329432
-0.000337556
-0.000345428
-0.000353041
-0.000360388
-0.000367468
-0.000374272
-0.00038079
-0.000387018
-0.00039295
-0.000398577
-0.00040389
-0.000408882
-0.000413545
-0.000417861
-0.00042181
-0.000425369
-0.000428514
-0.000431219
-0.000433465
-0.000435221
-0.000436456
-0.000437141
-0.000437245
-0.000436735
-0.000435575
-0.000433729
-0.000431179
-0.000427897
-0.000423759
-0.000418818
-0.00041216
7.22577e-05
6.06111e-05
4.8875e-05
3.69695e-05
2.49452e-05
1.28436e-05
6.81511e-07
-1.15347e-05
-2.37987e-05
-3.61005e-05
-4.84277e-05
-6.07677e-05
-7.31083e-05
-8.54376e-05
-9.77436e-05
-0.000110014
-0.000122237
-0.000134399
-0.000146487
-0.000158488
-0.00017039
-0.000182179
-0.000193842
-0.000205367
-0.000216743
-0.000227958
-0.000239
-0.000249859
-0.000260523
-0.000270984
-0.000281232
-0.000291258
-0.000301051
-0.000310603
-0.000319909
-0.000328978
-0.00033781
-0.0003464
-0.000354741
-0.000362829
-0.000370658
-0.000378224
-0.000385522
-0.000392548
-0.000399298
-0.000405767
-0.00041195
-0.000417843
-0.00042344
-0.000428735
-0.000433721
-0.000438386
-0.000442716
-0.000446695
-0.000450305
-0.000453527
-0.000456349
-0.000458753
-0.000460724
-0.000462251
-0.00046332
-0.000463918
-0.000464034
-0.000463644
-0.000462757
-0.000461344
-0.000459307
-0.000456821
-0.000452798
7.01667e-05
5.79526e-05
4.56497e-05
3.31727e-05
2.05761e-05
7.90409e-06
-4.82527e-06
-1.76049e-05
-3.04276e-05
-4.32826e-05
-5.61569e-05
-6.90368e-05
-8.19093e-05
-9.47616e-05
-0.000107581
-0.000120354
-0.000133067
-0.000145707
-0.00015826
-0.000170713
-0.000183052
-0.000195265
-0.000207337
-0.000219258
-0.000231013
-0.000242592
-0.000253983
-0.000265175
-0.000276159
-0.000286924
-0.000297461
-0.000307762
-0.000317817
-0.00032762
-0.00033717
-0.000346476
-0.000355536
-0.000364347
-0.000372905
-0.000381207
-0.000389249
-0.000397029
-0.000404544
-0.000411793
-0.000418773
-0.000425483
-0.000431921
-0.000438084
-0.00044397
-0.000449575
-0.000454896
-0.000459925
-0.000464655
-0.000469075
-0.000473176
-0.000476952
-0.000480397
-0.000483512
-0.000486297
-0.000488755
-0.00049089
-0.000492708
-0.000494218
-0.000495414
-0.000496337
-0.000496952
-0.000497232
-0.000497449
-0.000496189
6.7573e-05
5.47576e-05
4.18548e-05
2.87736e-05
1.55724e-05
2.29851e-06
-1.1029e-05
-2.44022e-05
-3.78131e-05
-5.125e-05
-6.46988e-05
-7.8145e-05
-9.15746e-05
-0.000104974
-0.000118329
-0.000131625
-0.000144849
-0.000157985
-0.000171021
-0.000183942
-0.000196733
-0.000209382
-0.000221875
-0.000234199
-0.000246341
-0.00025829
-0.000270034
-0.000281564
-0.000292867
-0.000303936
-0.000314762
-0.000325336
-0.000335652
-0.000345702
-0.000355491
-0.000365028
-0.000374311
-0.000383338
-0.000392107
-0.000400617
-0.000408867
-0.000416855
-0.000424583
-0.00043205
-0.000439258
-0.000446207
-0.000452898
-0.000459332
-0.00046551
-0.00047143
-0.000477093
-0.000482498
-0.000487642
-0.000492525
-0.000497148
-0.000501515
-0.000505636
-0.000509523
-0.00051319
-0.000516657
-0.000519942
-0.000523068
-0.000526067
-0.000528958
-0.000531811
-0.000534598
-0.00053743
-0.000540566
-0.000542322
6.43926e-05
5.09395e-05
3.74012e-05
2.36807e-05
9.8407e-06
-4.06873e-06
-1.80271e-05
-3.20257e-05
-4.60556e-05
-6.01041e-05
-7.41562e-05
-8.81962e-05
-0.000102209
-0.00011618
-0.000130093
-0.000143935
-0.00015769
-0.000171343
-0.000184878
-0.000198282
-0.00021154
-0.000224637
-0.00023756
-0.000250295
-0.000262831
-0.000275154
-0.000287255
-0.000299121
-0.000310745
-0.000322115
-0.000333226
-0.000344069
-0.000354638
-0.000364929
-0.00037495
-0.000384709
-0.000394206
-0.00040344
-0.000412411
-0.00042112
-0.000429568
-0.000437756
-0.000445689
-0.000453367
-0.000460796
-0.000467979
-0.00047492
-0.000481621
-0.000488089
-0.000494325
-0.000500336
-0.000506125
-0.000511699
-0.000517068
-0.000522244
-0.000527242
-0.000532084
-0.000536794
-0.000541398
-0.000545929
-0.000550423
-0.000554921
-0.000559475
-0.000564134
-0.000568991
-0.000574072
-0.000579626
-0.00058581
-0.00059107
6.05281e-05
4.6398e-05
3.21862e-05
1.77885e-05
3.27228e-06
-1.1309e-05
-2.59333e-05
-4.05911e-05
-5.52726e-05
-6.99641e-05
-8.46493e-05
-9.93115e-05
-0.000113935
-0.000128502
-0.000142999
-0.000157409
-0.000171715
-0.000185903
-0.000199955
-0.000213857
-0.000227593
-0.000241149
-0.000254511
-0.000267665
-0.000280599
-0.000293299
-0.000305756
-0.000317959
-0.000329898
-0.000341565
-0.000352954
-0.000364057
-0.00037487
-0.000385392
-0.000395634
-0.000405603
-0.000415302
-0.000424729
-0.000433889
-0.000442783
-0.000451416
-0.000459792
-0.000467917
-0.000475796
-0.000483435
-0.000490842
-0.000498023
-0.000504986
-0.000511739
-0.00051829
-0.000524651
-0.000530834
-0.000536855
-0.000542732
-0.000548487
-0.000554147
-0.000559742
-0.000565306
-0.000570879
-0.000576507
-0.00058224
-0.000588143
-0.000594282
-0.000600742
-0.000607626
-0.000615058
-0.000623251
-0.000632273
-0.000640814
5.58643e-05
4.10158e-05
2.609e-05
1.09754e-05
-4.25615e-06
-1.95476e-05
-3.48752e-05
-5.02284e-05
-6.55962e-05
-8.09638e-05
-9.63138e-05
-0.000111628
-0.00012689
-0.000142082
-0.000157186
-0.000172186
-0.000187065
-0.000201806
-0.000216392
-0.000230806
-0.000245033
-0.000259058
-0.000272866
-0.000286444
-0.000299777
-0.000312855
-0.000325666
-0.0003382
-0.000350449
-0.000362404
-0.00037406
-0.000385411
-0.000396454
-0.000407193
-0.000417641
-0.000427805
-0.000437687
-0.00044729
-0.00045662
-0.000465682
-0.000474483
-0.000483029
-0.000491329
-0.000499391
-0.000507226
-0.000514842
-0.00052225
-0.000529463
-0.000536494
-0.000543358
-0.000550073
-0.000556658
-0.000563137
-0.000569536
-0.000575886
-0.000582221
-0.00058858
-0.000595007
-0.000601554
-0.000608281
-0.000615255
-0.00062256
-0.000630279
-0.000638538
-0.000647443
-0.00065718
-0.000667695
-0.000679272
-0.000690891
5.02654e-05
3.46538e-05
1.89709e-05
3.09707e-06
-1.28911e-05
-2.89329e-05
-4.50029e-05
-6.10892e-05
-7.71798e-05
-9.32585e-05
-0.000109307
-0.000125305
-0.000141235
-0.000157078
-0.000172816
-0.00018843
-0.000203902
-0.000219215
-0.00023435
-0.00024929
-0.00026402
-0.000278522
-0.000292782
-0.000306786
-0.000320519
-0.000333972
-0.000347132
-0.000359989
-0.000372537
-0.000384768
-0.000396676
-0.000408259
-0.000419514
-0.000430451
-0.000441084
-0.00045142
-0.000461463
-0.000471219
-0.000480696
-0.000489902
-0.000498845
-0.000507537
-0.000515989
-0.000524212
-0.00053222
-0.000540027
-0.000547647
-0.000555098
-0.000562399
-0.000569571
-0.000576638
-0.000583626
-0.000590563
-0.000597484
-0.000604424
-0.000611425
-0.000618534
-0.000625805
-0.000633303
-0.0006411
-0.00064928
-0.000657948
-0.000667207
-0.000677224
-0.000688094
-0.00069999
-0.000712724
-0.000726891
-0.000740297
4.35686e-05
2.71462e-05
1.06602e-05
-6.01794e-06
-2.28065e-05
-3.96411e-05
-5.64946e-05
-7.33537e-05
-9.02052e-05
-0.000107031
-0.000123812
-0.000140527
-0.000157156
-0.000173678
-0.000190076
-0.000206328
-0.000222415
-0.000238318
-0.000254018
-0.000269498
-0.000284739
-0.000299725
-0.000314441
-0.000328871
-0.000343003
-0.000356824
-0.000370323
-0.000383493
-0.000396325
-0.000408814
-0.000420955
-0.000432746
-0.000444191
-0.000455302
-0.000466094
-0.000476573
-0.000486747
-0.000496624
-0.000506216
-0.000515533
-0.000524587
-0.000533394
-0.000541967
-0.000550323
-0.000558478
-0.000566453
-0.000574266
-0.00058194
-0.000589499
-0.000596967
-0.000604374
-0.000611749
-0.000619128
-0.000626547
-0.000634049
-0.000641682
-0.000649501
-0.00065757
-0.000665963
-0.000674767
-0.000684083
-0.000694035
-0.000704746
-0.000716396
-0.000729039
-0.000742895
-0.000758009
-0.000775484
-0.000794408
3.55769e-05
1.82925e-05
9.54666e-07
-1.65755e-05
-3.42107e-05
-5.18829e-05
-6.95632e-05
-8.72368e-05
-0.000104889
-0.000122501
-0.00014005
-0.000157515
-0.000174874
-0.000192106
-0.00020919
-0.000226103
-0.000242826
-0.000259338
-0.000275619
-0.000291649
-0.000307411
-0.000322886
-0.000338059
-0.000352914
-0.000367438
-0.000381618
-0.000395445
-0.00040891
-0.000422006
-0.00043473
-0.000447077
-0.000459049
-0.000470652
-0.000481904
-0.000492817
-0.000503401
-0.000513665
-0.000523622
-0.000533286
-0.000542672
-0.000551797
-0.00056068
-0.000569338
-0.000577793
-0.000586067
-0.000594182
-0.000602162
-0.000610034
-0.000617824
-0.000625561
-0.000633277
-0.000641007
-0.000648788
-0.000656661
-0.000664674
-0.00067288
-0.000681341
-0.000690131
-0.000699332
-0.000709044
-0.000719387
-0.000730491
-0.000742489
-0.000755544
-0.000769741
-0.000785475
-0.000802983
-0.000823739
-0.000846244
2.60472e-05
7.84643e-06
-1.03953e-05
-2.88279e-05
-4.73587e-05
-6.59159e-05
-8.44685e-05
-0.000103
-0.000121495
-0.000139932
-0.000158288
-0.000176539
-0.000194661
-0.000212633
-0.00023043
-0.00024803
-0.00026541
-0.000282549
-0.000299425
-0.000316017
-0.000332307
-0.000348274
-0.000363903
-0.000379177
-0.000394083
-0.000408609
-0.000422745
-0.000436482
-0.000449815
-0.000462741
-0.000475258
-0.00048737
-0.000499089
-0.000510434
-0.000521418
-0.000532053
-0.000542355
-0.000552338
-0.000562022
-0.000571427
-0.000580574
-0.000589485
-0.000598185
-0.000606697
-0.000615048
-0.000623263
-0.00063137
-0.000639397
-0.000647375
-0.000655335
-0.000663311
-0.00067134
-0.000679462
-0.000687723
-0.000696173
-0.000704869
-0.000713879
-0.000723283
-0.000733172
-0.000743656
-0.000754858
-0.000766903
-0.000779945
-0.000794196
-0.000809939
-0.000827756
-0.000847978
-0.000871585
-0.00089533
1.46679e-05
-4.50743e-06
-2.37083e-05
-4.30966e-05
-6.25743e-05
-8.20661e-05
-0.000101539
-0.000120976
-0.000140357
-0.000159662
-0.000178864
-0.000197938
-0.000216859
-0.000235602
-0.000254141
-0.000272453
-0.000290513
-0.000308297
-0.000325782
-0.000342946
-0.000359767
-0.000376227
-0.000392306
-0.000407988
-0.000423259
-0.000438107
-0.000452521
-0.000466495
-0.000480023
-0.000493104
-0.000505738
-0.000517933
-0.000529708
-0.000541083
-0.000552072
-0.000562693
-0.000572965
-0.000582909
-0.000592549
-0.000601908
-0.000611015
-0.000619895
-0.000628576
-0.000637087
-0.000645455
-0.000653712
-0.000661886
-0.000670008
-0.00067811
-0.000686227
-0.000694394
-0.000702649
-0.000711035
-0.000719597
-0.000728389
-0.00073747
-0.000746911
-0.000756795
-0.000767213
-0.000778271
-0.000790088
-0.000802814
-0.000816697
-0.000832094
-0.000849497
-0.000869546
-0.000892653
-0.000919462
-0.000949108
1.02325e-06
-1.91904e-05
-3.94099e-05
-5.98113e-05
-8.02914e-05
-0.000100772
-0.000121217
-0.000141608
-0.000161925
-0.000182142
-0.000202233
-0.00022217
-0.000241926
-0.000261473
-0.000280784
-0.000299832
-0.000318591
-0.000337034
-0.000355135
-0.000372872
-0.000390221
-0.00040716
-0.000423671
-0.000439735
-0.000455338
-0.000470466
-0.000485112
-0.000499268
-0.00051293
-0.000526098
-0.000538777
-0.000550981
-0.000562735
-0.000574057
-0.000584968
-0.000595489
-0.000605645
-0.000615464
-0.000624973
-0.000634204
-0.000643186
-0.000651952
-0.000660534
-0.000668963
-0.000677272
-0.000685492
-0.000693656
-0.000701795
-0.000709944
-0.000718136
-0.000726409
-0.000734802
-0.000743356
-0.000752119
-0.000761142
-0.000770484
-0.000780213
-0.000790401
-0.000801132
-0.000812509
-0.000824695
-0.000837938
-0.000852615
-0.000869167
-0.000888113
-0.000909975
-0.000934899
-0.000963114
-0.000992677
-1.55257e-05
-3.68475e-05
-5.81476e-05
-7.96202e-05
-0.000101158
-0.00012268
-0.00014415
-0.000165543
-0.000186839
-0.000208009
-0.000229025
-0.000249857
-0.000270474
-0.000290847
-0.000310945
-0.000330738
-0.000350199
-0.000369297
-0.000388005
-0.000406297
-0.000424148
-0.000441535
-0.000458436
-0.000474834
-0.000490713
-0.00050606
-0.000520867
-0.000535127
-0.000548839
-0.000562006
-0.000574636
-0.000586751
-0.000598379
-0.000609541
-0.000620262
-0.000630572
-0.000640499
-0.000650079
-0.000659346
-0.000668337
-0.000677088
-0.000685636
-0.000694018
-0.000702269
-0.000710423
-0.000718515
-0.000726578
-0.000734644
-0.000742747
-0.000750922
-0.000759206
-0.000767636
-0.000776254
-0.000785103
-0.00079423
-0.000803684
-0.000813518
-0.000823795
-0.000834608
-0.000846121
-0.000858586
-0.000872329
-0.000887709
-0.000905142
-0.000924997
-0.000947477
-0.00097225
-0.00099892
-0.00102525
-3.59383e-05
-5.84155e-05
-8.0833e-05
-0.000103408
-0.000126033
-0.000148625
-0.000171143
-0.000193561
-0.000215853
-0.000237991
-0.000259942
-0.000281673
-0.000303151
-0.000324344
-0.000345218
-0.00036574
-0.000385879
-0.000405603
-0.000424882
-0.000443686
-0.000461989
-0.000479766
-0.000496994
-0.000513654
-0.000529728
-0.000545206
-0.000560078
-0.00057434
-0.000587992
-0.00060104
-0.0006135
-0.000625401
-0.00063677
-0.000647635
-0.000658028
-0.000667984
-0.000677543
-0.000686746
-0.000695635
-0.000704254
-0.000712647
-0.000720856
-0.000728922
-0.000736884
-0.000744778
-0.000752639
-0.000760501
-0.000768397
-0.000776358
-0.000784418
-0.000792611
-0.000800972
-0.000809534
-0.000818336
-0.000827411
-0.000836798
-0.000846546
-0.000856756
-0.000867577
-0.000879239
-0.000891979
-0.000906038
-0.000921687
-0.0009392
-0.000958638
-0.000979744
-0.00100178
-0.00102403
-0.00104535
-6.10008e-05
-8.4634e-05
-0.000108161
-0.000131823
-0.00015552
-0.000179169
-0.000202723
-0.000226151
-0.000249424
-0.00027251
-0.000295375
-0.000317982
-0.000340295
-0.000362278
-0.000383894
-0.000405108
-0.000425884
-0.000446187
-0.000465984
-0.000485243
-0.000503934
-0.000522031
-0.000539508
-0.000556344
-0.000572522
-0.000588029
-0.000602858
-0.000617005
-0.000630472
-0.000643271
-0.000655425
-0.000666966
-0.000677924
-0.000688336
-0.000698241
-0.000707685
-0.000716715
-0.000725383
-0.00073374
-0.00074184
-0.000749732
-0.000757467
-0.000765088
-0.000772638
-0.000780157
-0.000787677
-0.000795234
-0.000802858
-0.000810578
-0.000818422
-0.000826415
-0.000834584
-0.000842952
-0.000851549
-0.000860416
-0.000869619
-0.000879256
-0.000889463
-0.00090039
-0.000912158
-0.000924877
-0.000938678
-0.000953695
-0.000969889
-0.000986952
-0.00100433
-0.00102129
-0.00103764
-0.00105338
-9.03396e-05
-0.00011512
-0.000139742
-0.000164471
-0.000189224
-0.000213914
-0.00023849
-0.000262916
-0.000287159
-0.000311185
-0.000334954
-0.000358427
-0.000381564
-0.000404325
-0.000426669
-0.000448557
-0.000469949
-0.000490807
-0.000511094
-0.000530773
-0.000549813
-0.000568182
-0.000585853
-0.000602803
-0.000619012
-0.000634466
-0.000649158
-0.000663085
-0.000676251
-0.000688675
-0.000700385
-0.000711415
-0.000721804
-0.000731595
-0.000740839
-0.000749592
-0.000757916
-0.000765872
-0.000773525
-0.000780938
-0.000788172
-0.000795284
-0.000802324
-0.000809338
-0.000816363
-0.00082343
-0.000830568
-0.000837803
-0.000845158
-0.000852653
-0.000860309
-0.000868149
-0.000876208
-0.000884542
-0.000893234
-0.000902386
-0.000912089
-0.000922378
-0.000933251
-0.000944705
-0.000956753
-0.000969338
-0.000982296
-0.000995322
-0.00100791
-0.00101964
-0.00103055
-0.0010417
-0.00105351
-0.000122139
-0.000148125
-0.000173898
-0.000199752
-0.000225617
-0.000251408
-0.000277068
-0.000302556
-0.000327834
-0.000352864
-0.000377602
-0.000402006
-0.000426031
-0.000449631
-0.000472762
-0.000495379
-0.000517439
-0.000538897
-0.000559712
-0.000579844
-0.000599255
-0.000617909
-0.000635775
-0.000652826
-0.000669039
-0.000684399
-0.000698894
-0.000712524
-0.000725295
-0.000737231
-0.000748365
-0.000758735
-0.000768387
-0.000777376
-0.000785766
-0.000793627
-0.000801036
-0.000808074
-0.000814822
-0.000821358
-0.000827758
-0.000834089
-0.00084041
-0.000846765
-0.000853185
-0.000859688
-0.000866287
-0.000872988
-0.000879807
-0.000886784
-0.000893976
-0.000901462
-0.000909317
-0.000917607
-0.000926379
-0.000935637
-0.000945336
-0.000955391
-0.000965717
-0.000976184
-0.00098654
-0.000996485
-0.00100565
-0.00101358
-0.00102016
-0.00102606
-0.00103252
-0.00104086
-0.00105091
-0.000154631
-0.000181948
-0.000209019
-0.000236148
-0.000263278
-0.000290324
-0.000317222
-0.000343924
-0.000370391
-0.000396579
-0.00042244
-0.000447926
-0.000472986
-0.000497572
-0.000521631
-0.000545114
-0.00056797
-0.00059015
-0.000611605
-0.00063229
-0.000652159
-0.000671171
-0.000689288
-0.000706477
-0.000722709
-0.000737963
-0.000752227
-0.000765498
-0.000777785
-0.000789117
-0.000799527
-0.000809061
-0.000817776
-0.000825742
-0.00083304
-0.000839761
-0.000846004
-0.000851872
-0.00085747
-0.000862898
-0.000868249
-0.000873602
-0.000879016
-0.000884535
-0.000890185
-0.00089598
-0.000901932
-0.000908044
-0.000914343
-0.00092088
-0.000927743
-0.000935045
-0.000942873
-0.000951227
-0.000960003
-0.000969076
-0.000978339
-0.000987647
-0.000996694
-0.00100503
-0.00101219
-0.00101776
-0.00102153
-0.0010237
-0.00102521
-0.0010276
-0.00103221
-0.00103965
-0.00104908
-0.000185603
-0.000214491
-0.000243103
-0.000271757
-0.000300401
-0.000328948
-0.000357328
-0.00038549
-0.000413389
-0.000440976
-0.000468198
-0.000495001
-0.000521328
-0.000547124
-0.000572332
-0.000596893
-0.000620751
-0.000643848
-0.00066613
-0.000687541
-0.00070803
-0.000727546
-0.000746043
-0.000763477
-0.000779812
-0.000795019
-0.000809078
-0.000821984
-0.000833748
-0.000844395
-0.000853963
-0.000862505
-0.000870092
-0.000876812
-0.000882767
-0.000888073
-0.000892856
-0.000897246
-0.000901374
-0.000905368
-0.000909342
-0.000913397
-0.000917616
-0.000922062
-0.000926788
-0.000931836
-0.00093724
-0.000943022
-0.000949176
-0.000955663
-0.000962425
-0.000969453
-0.000976832
-0.000984663
-0.000992893
-0.00100129
-0.00100949
-0.001017
-0.00102333
-0.00102796
-0.00103049
-0.00103092
-0.00102986
-0.00102841
-0.00102772
-0.00102901
-0.00103306
-0.00103985
-0.00104857
-0.000216523
-0.000247122
-0.000277528
-0.000307978
-0.000338414
-0.000368747
-0.000398904
-0.000428825
-0.000458458
-0.000487748
-0.000516635
-0.000545057
-0.000572951
-0.000600252
-0.000626895
-0.000652812
-0.000677936
-0.0007022
-0.000725538
-0.000747883
-0.000769171
-0.00078934
-0.000808331
-0.000826087
-0.000842558
-0.000857702
-0.000871485
-0.000883897
-0.000894947
-0.000904661
-0.000913081
-0.00092027
-0.000926313
-0.000931317
-0.000935411
-0.000938743
-0.000941483
-0.000943814
-0.00094593
-0.000948028
-0.000950297
-0.000952905
-0.000955984
-0.000959611
-0.000963797
-0.000968486
-0.000973588
-0.00097903
-0.000984773
-0.000990795
-0.000997023
-0.0010033
-0.00100957
-0.00101597
-0.00102256
-0.00102894
-0.00103448
-0.0010387
-0.00104122
-0.00104182
-0.00104056
-0.0010378
-0.00103445
-0.00103201
-0.00103125
-0.00103224
-0.00103547
-0.0010413
-0.00104893
-0.00024003
-0.000272922
-0.000305494
-0.0003381
-0.000370684
-0.000403146
-0.000435407
-0.000467406
-0.000499086
-0.000530386
-0.000561241
-0.000591583
-0.000621341
-0.000650443
-0.000678814
-0.000706379
-0.000733065
-0.000758796
-0.0007835
-0.000807105
-0.000829537
-0.000850722
-0.000870577
-0.000889022
-0.000905982
-0.000921399
-0.000935228
-0.000947438
-0.000958013
-0.000966961
-0.000974312
-0.000980132
-0.000984517
-0.000987605
-0.000989569
-0.000990626
-0.000991025
-0.000991048
-0.000990991
-0.000991147
-0.000991782
-0.000993106
-0.000995246
-0.000998229
-0.00100196
-0.00100623
-0.00101075
-0.00101523
-0.00101957
-0.00102393
-0.00102849
-0.00103305
-0.00103708
-0.00104038
-0.00104326
-0.00104591
-0.00104807
-0.00104924
-0.00104917
-0.00104781
-0.00104547
-0.00104254
-0.00103944
-0.00103688
-0.00103571
-0.00103638
-0.00103897
-0.00104356
-0.00104958
-0.000278793
-0.000313797
-0.00034895
-0.000384179
-0.000419389
-0.000454484
-0.000489376
-0.000523997
-0.000558278
-0.000592148
-0.000625531
-0.000658345
-0.000690507
-0.000721931
-0.000752527
-0.000782201
-0.000810857
-0.000838396
-0.000864717
-0.000889722
-0.00091332
-0.000935412
-0.000955867
-0.000974559
-0.000991402
-0.00100633
-0.00101928
-0.00103023
-0.00103918
-0.00104615
-0.00105117
-0.00105435
-0.00105579
-0.00105567
-0.00105421
-0.00105166
-0.00104832
-0.00104454
-0.00104071
-0.00103723
-0.0010345
-0.00103289
-0.00103267
-0.00103393
-0.00103657
-0.00104019
-0.00104411
-0.00104746
-0.00104954
-0.00105041
-0.00105067
-0.00105085
-0.00105099
-0.00105091
-0.0010508
-0.00105102
-0.00105162
-0.00105205
-0.00105171
-0.00105033
-0.00104816
-0.00104565
-0.0010433
-0.00104161
-0.00104092
-0.00104135
-0.00104293
-0.00104571
-0.00104956
-0.000292815
-0.000330405
-0.000367463
-0.000404809
-0.000442246
-0.000479517
-0.00051652
-0.000553209
-0.000589527
-0.000625401
-0.000660751
-0.000695492
-0.000729533
-0.000762785
-0.000795154
-0.000826545
-0.000856866
-0.000886032
-0.000913963
-0.000940583
-0.000965843
-0.000989726
-0.00101207
-0.00103255
-0.00105093
-0.00106706
-0.00108087
-0.00109229
-0.00110126
-0.00110773
-0.00111168
-0.00111315
-0.00111223
-0.0011091
-0.00110404
-0.00109745
-0.00108981
-0.00108174
-0.0010739
-0.001067
-0.00106166
-0.00105837
-0.00105736
-0.00105851
-0.00106124
-0.00106463
-0.00106747
-0.00106855
-0.00106709
-0.00106354
-0.00105944
-0.00105599
-0.00105382
-0.00105299
-0.00105302
-0.00105316
-0.0010529
-0.00105221
-0.00105123
-0.00104989
-0.00104819
-0.00104649
-0.00104513
-0.00104428
-0.00104397
-0.00104419
-0.00104496
-0.00104624
-0.00104816
-0.000394813
-0.000435068
-0.000475882
-0.000516743
-0.000557449
-0.000597948
-0.000638161
-0.000677997
-0.000717379
-0.000756232
-0.00079447
-0.00083199
-0.000868678
-0.000904418
-0.000939086
-0.000972545
-0.00100465
-0.00103522
-0.00106408
-0.00109102
-0.00111582
-0.00113819
-0.00115809
-0.00117563
-0.00119083
-0.00120357
-0.00121365
-0.00122088
-0.00122512
-0.00122627
-0.00122428
-0.00121918
-0.0012111
-0.00120023
-0.00118691
-0.00117163
-0.001155
-0.00113776
-0.00112076
-0.00110489
-0.00109099
-0.00107981
-0.00107184
-0.00106723
-0.00106573
-0.00106665
-0.00106891
-0.00107118
-0.0010723
-0.00107155
-0.00106864
-0.00106421
-0.00105953
-0.00105588
-0.00105381
-0.00105272
-0.0010517
-0.00105044
-0.00104899
-0.00104747
-0.00104609
-0.00104506
-0.00104455
-0.00104453
-0.00104489
-0.0010455
-0.00104624
-0.00104687
-0.00104752
0.000156272
0.000161124
0.000166287
0.000171928
0.000178023
0.000184537
0.000191589
0.000199016
0.000206873
0.00021514
0.000223776
0.000232883
0.000242114
0.000252259
0.000261697
0.000271878
0.000281306
0.000291232
0.000300787
0.000310116
0.00031978
0.000327699
0.000335506
0.000342222
0.000348109
0.000353148
0.000356617
0.000358923
0.000360141
0.000359975
0.000358008
0.000354696
0.000350194
0.000344713
0.00033745
0.000329201
0.000320093
0.000309966
0.000299082
0.000287789
0.000275915
0.000263516
0.000251335
0.000239353
0.000226486
0.000214503
0.000202126
0.00019037
0.000178836
0.000167597
0.000156864
0.000146503
0.000136693
0.00012725
0.000118403
0.000109501
0.000101217
9.33327e-05
8.58418e-05
0.000157852
0.000162892
0.000168402
0.000174342
0.00018073
0.000187576
0.000194901
0.000202665
0.000210891
0.000219559
0.000228626
0.000238105
0.000247887
0.000258017
0.000268348
0.000278744
0.000289181
0.000299509
0.000309743
0.000319524
0.000329063
0.000337953
0.000346098
0.000353296
0.00035951
0.000364668
0.000368558
0.000371037
0.000372325
0.000372112
0.000370165
0.000366888
0.00036226
0.000356247
0.00034883
0.00034023
0.000330649
0.000320167
0.000308862
0.000296941
0.000284571
0.000271826
0.000258966
0.000245919
0.000232893
0.000220049
0.000207385
0.000195056
0.000183017
0.00017131
0.00016004
0.00014922
0.000138799
0.000128867
0.000119336
0.000110276
0.000101653
9.34585e-05
8.56505e-05
0.000159572
0.000164858
0.000170603
0.000176823
0.000183519
0.000190698
0.00019836
0.0002065
0.000215121
0.00022421
0.000233725
0.000243632
0.000253896
0.000264472
0.000275276
0.000286291
0.000297334
0.000308295
0.000319042
0.000329421
0.000339355
0.000348724
0.000357363
0.000365025
0.000371644
0.000377082
0.000381212
0.000383945
0.000385295
0.000385079
0.000383213
0.000379855
0.000374967
0.000368633
0.000360897
0.000351939
0.000341885
0.000330911
0.000319108
0.000306656
0.00029371
0.000280337
0.000266744
0.000253096
0.000239474
0.000226032
0.000212796
0.000199849
0.000187233
0.000174985
0.000163172
0.000151801
0.000140889
0.000130444
0.000120501
0.000111042
0.000102032
9.34623e-05
8.53073e-05
0.000161075
0.000166607
0.000172622
0.000179132
0.000186147
0.000193672
0.000201711
0.00021026
0.000219312
0.000228852
0.000238853
0.000249279
0.00026009
0.000271224
0.000282594
0.000294162
0.00030576
0.000317308
0.00032864
0.000339647
0.000350174
0.000360038
0.000369148
0.000377268
0.0003843
0.000390083
0.00039448
0.000397422
0.000398866
0.00039868
0.000396823
0.000393339
0.000388224
0.000381613
0.00037353
0.000364161
0.000353627
0.000342097
0.000329712
0.000316645
0.000303045
0.00028903
0.000274798
0.000260522
0.000246252
0.000232139
0.000218246
0.00020465
0.000191417
0.000178588
0.000166208
0.000154302
0.000142891
0.000131979
0.000121573
0.000111659
0.000102224
9.3254e-05
8.47309e-05
0.000162275
0.000168065
0.000174367
0.000181191
0.000188547
0.000196441
0.000204879
0.000213858
0.00022337
0.000233399
0.000243918
0.000254893
0.000266276
0.000278003
0.000289993
0.000302161
0.000314383
0.000326553
0.000338523
0.000350158
0.000361293
0.000371735
0.000381357
0.000389961
0.000397417
0.000403566
0.000408263
0.000411413
0.00041297
0.000412826
0.000410937
0.000407323
0.000401993
0.000395081
0.000386634
0.000376818
0.000365777
0.000353673
0.00034067
0.000326946
0.000312666
0.000297986
0.000283078
0.000268094
0.000253131
0.000238314
0.000223738
0.00020948
0.000195605
0.000182161
0.00016919
0.000156719
0.000144767
0.000133339
0.000122436
0.000112053
0.000102176
9.27892e-05
8.38714e-05
0.00016317
0.000169233
0.000175835
0.000182989
0.000190706
0.000198993
0.000207854
0.000217288