/*--------------------------------*- C++ -*----------------------------------*\
| =========                 |                                                 |
| \\      /  F ield         | OpenFOAM: The Open Source CFD Toolbox           |
|  \\    /   O peration     | Version:  2312                                  |
|   \\  /    A nd           | Website:  www.openfoam.com                      |
|    \\/     M anipulation  |                                                 |
\*---------------------------------------------------------------------------*/
FoamFile
{
    version     2.0;
    format      ascii;
    arch        "LSB;label=32;scalar=64";
    class       surfaceScalarField;
    location    "400";
    object      phi;
}
// * * * * * * * * * * * * * * * * * * * * * * * * * * * * * * * * * * * * * //

dimensions      [0 3 -1 0 0 0 0];

oriented        oriented;

internalField   nonuniform List<scalar> 
116611
(
0.00114584
0.000413213
-0.00113013
-0.000428918
0.00116146
0.000409164
-0.00042479
0.00117692
0.000404787
-0.000420243
0.00119221
0.000400071
-0.000415367
0.00120735
0.000395043
-0.000410187
0.00122251
0.000389657
-0.000404815
0.00123727
0.000383907
-0.000398667
0.001252
0.000377774
-0.000392501
0.0012663
0.000371206
-0.00038551
0.00128045
0.000364213
-0.000378356
0.00129436
0.000356796
-0.000370703
0.00130806
0.00034895
-0.000362654
0.00132142
0.000340665
-0.000354028
0.00133442
0.000331887
-0.000344883
0.00134713
0.000322643
-0.00033535
0.00135935
0.000312899
-0.000325119
0.00137142
0.000302626
-0.000314696
0.00138301
0.000291875
-0.000303466
0.00139428
0.000280512
-0.00029179
0.00140507
0.000268676
-0.000279461
0.00141552
0.00025621
-0.000266665
0.00142539
0.000243179
-0.000253043
0.00143475
0.000229528
-0.000238888
0.00144373
0.00021534
-0.000224322
0.00145221
0.000200533
-0.000209012
0.00146022
0.000185083
-0.00019309
0.0014677
0.000168954
-0.000176437
0.00147455
0.000152236
-0.000159092
0.00148112
0.000134901
-0.000141466
0.00148681
0.000116868
-0.000122556
0.00149215
9.8243e-05
-0.000103585
0.00149681
7.8776e-05
-8.3437e-05
0.00150094
5.86462e-05
-6.27749e-05
0.00150435
3.78489e-05
-4.12578e-05
0.00150721
1.63046e-05
-1.91692e-05
0.00150932
-5.8651e-06
3.76163e-06
0.00151108
-2.87589e-05
2.69982e-05
0.00151198
-5.2438e-05
5.1537e-05
0.00151215
-7.68496e-05
7.66779e-05
0.00151147
-0.000102087
0.000102768
0.00151015
-0.000127919
0.000129241
0.00150828
-0.000154488
0.000156358
0.00150538
-0.000181867
0.000184765
0.00150167
-0.000209901
0.000213607
0.00149713
-0.000238658
0.0002432
0.0014919
-0.000268028
0.000273258
0.00148573
-0.000298158
0.000304329
0.00147848
-0.000328902
0.000336157
0.00147049
-0.00036018
0.000368161
0.00146162
-0.000392045
0.000400918
0.00145172
-0.000424514
0.000434412
0.00144094
-0.000457441
0.000468227
0.00142914
-0.000490852
0.000502649
0.00141618
-0.000524717
0.00053768
0.00140192
-0.000558872
0.000573128
0.00138711
-0.00059304
0.000607847
0.00137089
-0.000627559
0.000643785
0.00135387
-0.000661965
0.000678979
0.00133587
-0.000696313
0.000714314
0.00131673
-0.000730497
0.000749642
0.00129673
-0.000764297
0.000784289
0.00127541
-0.000797776
0.000819098
0.00125314
-0.000830165
0.000852442
0.00122943
-0.000861299
0.000885009
0.00120413
-0.000890604
0.000915903
0.00117809
-0.0009173
0.000943341
0.00115046
-0.000941439
0.000969064
0.00111926
-0.000962768
0.000993965
-0.000979523
0.00108549
0.00101329
0.00113092
0.000397566
-0.00111528
0.00114642
0.000393667
0.00116177
0.000389439
0.00117696
0.000384881
0.00119203
0.000379975
0.00120694
0.000374747
0.00122168
0.000369163
0.00123624
0.000363211
0.00125058
0.000356874
0.00126467
0.000350121
0.00127851
0.000342951
0.0012921
0.000335361
0.00130544
0.000327331
0.00131847
0.000318853
0.00133118
0.000309929
0.00134357
0.000300509
0.0013556
0.000290601
0.00136729
0.000280181
0.00137857
0.000269237
0.00138949
0.000257754
0.00139998
0.000245723
0.00141002
0.000233132
0.00141959
0.000219963
0.0014287
0.000206223
0.00143735
0.000191885
0.00144552
0.00017692
0.00145313
0.000161344
0.00146021
0.000145147
0.0014668
0.000128317
0.00147281
0.000110856
0.00147833
9.27219e-05
0.00148322
7.38909e-05
0.00148748
5.43864e-05
0.00149113
3.41993e-05
0.00149411
1.3321e-05
0.00149649
-8.24259e-06
0.00149824
-3.05122e-05
0.0014993
-5.34932e-05
0.00149966
-7.72118e-05
0.00149924
-0.000101665
0.00149812
-0.000126802
0.00149626
-0.000152633
0.00149358
-0.00017918
0.00149011
-0.00020643
0.00148581
-0.000234357
0.00148071
-0.000262929
0.0014747
-0.000292155
0.00146781
-0.000322008
0.00146006
-0.000352433
0.00145143
-0.000383408
0.00144184
-0.000414925
0.00143132
-0.000446923
0.00141983
-0.000479363
0.00140731
-0.000512198
0.00139377
-0.000545334
0.00137937
-0.000578632
0.00136392
-0.000612108
0.00134757
-0.000645622
0.00133033
-0.000679069
0.00131217
-0.000712341
0.00129311
-0.000745232
0.00127288
-0.000777547
0.00125154
-0.000808819
0.00122888
-0.000838647
0.00120484
-0.000866566
0.00117952
-0.000891976
0.00115263
-0.00091455
0.00112367
-0.000933807
-0.000948678
0.00109283
0.00111645
0.000382002
-0.00110089
0.00113188
0.000378238
0.00114717
0.000374152
0.0011623
0.000369746
0.00117727
0.00036501
0.00119207
0.000359941
0.00120671
0.000354527
0.00122117
0.000348755
0.00123542
0.000342615
0.00124946
0.000336089
0.00126324
0.000329165
0.00127677
0.000321829
0.00129004
0.000314069
0.00130301
0.000305875
0.00131571
0.000297237
0.00132808
0.000288135
0.00134012
0.000278559
0.00135181
0.00026849
0.00136313
0.000257916
0.00137407
0.000246822
0.00138459
0.000235197
0.0013947
0.000223028
0.00140436
0.000210302
0.00141357
0.000197011
0.00142231
0.000183141
0.00143056
0.000168675
0.0014383
0.000153608
0.00144552
0.000137927
0.00145221
0.000121627
0.00145837
0.000104695
0.00146397
8.7117e-05
0.00146898
6.88802e-05
0.00147339
4.99788e-05
0.00147718
3.04079e-05
0.00148034
1.01664e-05
0.00148285
-1.07602e-05
0.00148472
-3.2378e-05
0.00148592
-5.46914e-05
0.00148642
-7.77104e-05
0.00148618
-0.00010143
0.00148522
-0.000125838
0.00148351
-0.000150927
0.00148103
-0.000176704
0.00147777
-0.000203162
0.00147369
-0.000230277
0.00146879
-0.000258033
0.00146305
-0.000286418
0.00145645
-0.00031541
0.00144899
-0.000344972
0.00144066
-0.000375074
0.00143143
-0.000405695
0.0014213
-0.00043679
0.00141025
-0.000468314
0.00139826
-0.000500215
0.00138535
-0.000532424
0.00137157
-0.000564851
0.00135691
-0.000597444
0.00134139
-0.000630104
0.00132502
-0.000662703
0.00130777
-0.000695086
0.00128956
-0.000727026
0.00127026
-0.00075824
0.00124977
-0.000788336
0.00122801
-0.000816883
0.00120491
-0.000843463
0.00118049
-0.000867557
0.00115469
-0.000888758
0.00112743
-0.000906544
-0.000920102
0.00109886
0.00110247
0.000366488
-0.00108696
0.00111786
0.000362857
0.00113309
0.000358915
0.00114817
0.000354664
0.00116309
0.000350096
0.00117783
0.0003452
0.00119239
0.000339967
0.00120676
0.000334387
0.00122092
0.000328448
0.00123487
0.000322139
0.00124859
0.000315448
0.00126206
0.000308362
0.00127526
0.000300867
0.00128818
0.000292952
0.00130082
0.000284603
0.00131314
0.000275809
0.00132515
0.000266554
0.00133681
0.000256827
0.00134811
0.000246612
0.00135904
0.000235896
0.00136957
0.000224665
0.00137969
0.000212907
0.00138938
0.000200611
0.00139863
0.000187764
0.00140742
0.000174354
0.00141572
0.000160369
0.00142353
0.000145796
0.00143083
0.000130627
0.00143761
0.000114851
0.00144385
9.84569e-05
0.00144953
8.14347e-05
0.00145464
6.3773e-05
0.00145915
4.54637e-05
0.00146306
2.65013e-05
0.00146634
6.88382e-06
0.00146899
-1.34077e-05
0.00147099
-3.43763e-05
0.00147232
-5.6023e-05
0.00147296
-7.83514e-05
0.00147289
-0.000101361
0.0014721
-0.000125045
0.00147057
-0.0001494
0.00146829
-0.000174422
0.00146523
-0.000200104
0.00146139
-0.000226432
0.00145674
-0.000253388
0.00145128
-0.000280957
0.00144499
-0.000309118
0.00143786
-0.000337843
0.00142989
-0.000367102
0.00142106
-0.000396868
0.00141138
-0.000427104
0.00140083
-0.000457767
0.00138942
-0.000488809
0.00137717
-0.000520172
0.0013641
-0.000551782
0.00135022
-0.000583563
0.00133552
-0.000615407
0.00131998
-0.000647163
0.00130354
-0.000678637
0.00128609
-0.000709576
0.00126752
-0.000739676
0.00124776
-0.000768577
0.00122676
-0.000795877
0.00120449
-0.000821202
0.00118102
-0.000844079
0.00115639
-0.000864126
0.00113069
-0.000880846
-0.000893593
0.00110418
0.00108895
0.000351001
-0.00107347
0.0011043
0.000347507
0.0011195
0.000343713
0.00113455
0.00033962
0.00114943
0.00033522
0.00116412
0.000330503
0.00117863
0.000325459
0.00119294
0.000320077
0.00120704
0.000314348
0.00122092
0.00030826
0.00123457
0.000301801
0.00124797
0.000294962
0.00126111
0.000287728
0.00127397
0.000280088
0.00128654
0.000272029
0.00129881
0.000263538
0.00131077
0.000254603
0.00132238
0.000245211
0.00133365
0.000235347
0.00134454
0.000225
0.00135505
0.000214155
0.00136516
0.0002028
0.00137485
0.000190923
0.0013841
0.000178512
0.0013929
0.000165554
0.00140123
0.000152038
0.00140908
0.000137951
0.00141642
0.000123283
0.00142325
0.000108023
0.00142954
9.21616e-05
0.00143529
7.56876e-05
0.00144047
5.85914e-05
0.00144507
4.08645e-05
0.00144907
2.25006e-05
0.00145246
3.49648e-06
0.00145522
-1.61691e-05
0.00145734
-3.64952e-05
0.0014588
-5.74827e-05
0.00145958
-7.91339e-05
0.00145967
-0.000101449
0.00145905
-0.000124425
0.00145771
-0.000148058
0.00145563
-0.000172342
0.00145279
-0.00019727
0.00144919
-0.000222831
0.00144481
-0.000249009
0.00143964
-0.000275789
0.00143368
-0.00030315
0.0014269
-0.00033107
0.00141932
-0.000359521
0.00141093
-0.000388476
0.00140173
-0.000417903
0.00139173
-0.000447764
0.00138093
-0.000478013
0.00136935
-0.000508593
0.001357
-0.000539429
0.00134386
-0.000570424
0.0013299
-0.000601447
0.00131506
-0.000632323
0.00129926
-0.000662836
0.0012824
-0.000692723
0.00126442
-0.000721692
0.00124526
-0.000749414
0.00122492
-0.000775538
0.00120345
-0.000799728
0.00118092
-0.000821551
0.00115747
-0.000840677
0.00113324
-0.000856614
-0.000868762
0.0011084
0.00107587
0.000335531
-0.0010604
0.0010912
0.000332178
0.00110638
0.000328534
0.0011214
0.000324601
0.00113625
0.000320372
0.00115091
0.000315837
0.00116538
0.000310986
0.00117965
0.000305808
0.00119371
0.000300293
0.00120754
0.00029443
0.00122113
0.000288208
0.00123448
0.000281618
0.00124756
0.000274646
0.00126037
0.000267281
0.00127288
0.000259511
0.0012851
0.000251323
0.001297
0.000242706
0.00130856
0.000233646
0.00131978
0.00022413
0.00133063
0.000214146
0.00134111
0.000203681
0.00135118
0.000192722
0.00136085
0.000181258
0.00137009
0.000169275
0.00137888
0.000156761
0.00138721
0.000143705
0.00139507
0.000130095
0.00140243
0.000115919
0.00140929
0.000101168
0.00141562
8.58301e-05
0.00142141
6.98956e-05
0.00142665
5.33552e-05
0.00143131
3.62002e-05
0.00143539
1.84239e-05
0.00143886
2.10891e-08
0.00144172
-1.90289e-05
0.00144395
-3.87231e-05
0.00144553
-5.90633e-05
0.00144645
-8.00515e-05
0.00144669
-0.000101688
0.00144624
-0.000123972
0.00144508
-0.000146899
0.0014432
-0.000170464
0.00144059
-0.000194661
0.00143724
-0.000219478
0.00143313
-0.000244904
0.00142826
-0.000270923
0.00142263
-0.000297518
0.00141623
-0.000324669
0.00140906
-0.000352353
0.00140113
-0.000380545
0.00139244
-0.000409215
0.001383
-0.000438326
0.00137282
-0.00046783
0.00136189
-0.00049766
0.00135019
-0.000527728
0.00133768
-0.000557916
0.0013243
-0.000588071
0.00130998
-0.000618004
0.00129465
-0.000647498
0.00127822
-0.0006763
0.00126068
-0.000704151
0.00124202
-0.000730753
0.0012223
-0.000755812
0.00120159
-0.000779022
0.00118003
-0.00079999
0.0011578
-0.000818444
0.00113507
-0.000833887
-0.000845771
0.00111208
0.00106326
0.000320081
-0.00104781
0.00107857
0.000316869
0.00109373
0.000313376
0.00110872
0.000309605
0.00112355
0.000305549
0.00113819
0.000301198
0.00115263
0.000296541
0.00116687
0.000291568
0.00118089
0.00028627
0.00119469
0.000280636
0.00120824
0.000274655
0.00122154
0.000268316
0.00123458
0.000261609
0.00124734
0.000254521
0.00125981
0.000247041
0.00127197
0.000239157
0.00128382
0.000230857
0.00129534
0.000222129
0.00130651
0.000212959
0.00131732
0.000203336
0.00132775
0.000193248
0.00133779
0.000182681
0.00134743
0.000171623
0.00135664
0.000160063
0.00136541
0.000147987
0.00137373
0.000135385
0.00138159
0.000122244
0.00138895
0.000108553
0.00139582
9.43013e-05
0.00140217
7.94786e-05
0.00140799
6.40748e-05
0.00141327
4.80803e-05
0.00141798
3.14866e-05
0.00142212
1.42867e-05
0.00142567
-3.52757e-06
0.00142861
-2.19734e-05
0.00143093
-4.10482e-05
0.00143263
-6.07545e-05
0.00143367
-8.10947e-05
0.00143405
-0.00010207
0.00143376
-0.000123678
0.00143278
-0.000145918
0.0014311
-0.000168786
0.00142871
-0.000192273
0.00142561
-0.000216374
0.00142178
-0.000241075
0.00141722
-0.000266366
0.00141194
-0.000292232
0.00140592
-0.000318655
0.00139919
-0.000345616
0.00139173
-0.000373089
0.00138356
-0.000401044
0.00137467
-0.000429436
0.00136505
-0.000458208
0.00135467
-0.000487278
0.00134348
-0.00051654
0.00133142
-0.000545861
0.00131843
-0.000575079
0.00130444
-0.000604009
0.00128939
-0.000632448
0.00127326
-0.000660171
0.00125606
-0.000686955
0.00123785
-0.000712538
0.00121871
-0.000736676
0.00119878
-0.000759087
0.00117821
-0.000779425
0.00115724
-0.00079747
0.00113606
-0.000812715
-0.000824636
0.00111493
0.00105116
0.000304661
-0.00103574
0.00106644
0.000301588
0.00108158
0.000298244
0.00109655
0.000294634
0.00111135
0.00029075
0.00112596
0.000286582
0.00114038
0.000282121
0.00115459
0.000277356
0.00116859
0.000272277
0.00118235
0.000266873
0.00119587
0.000261135
0.00120914
0.000255051
0.00122214
0.00024861
0.00123486
0.000241801
0.00124728
0.000234613
0.00125941
0.000227034
0.00127121
0.000219052
0.00128268
0.000210656
0.00129381
0.000201832
0.00130458
0.000192569
0.00131497
0.000182855
0.00132498
0.000172677
0.00133458
0.000162023
0.00134376
0.00015088
0.00135251
0.000139238
0.00136081
0.000127084
0.00136865
0.000114406
0.00137601
0.000101193
0.00138287
8.74343e-05
0.00138923
7.3119e-05
0.00139507
5.82371e-05
0.00140037
4.27791e-05
0.00140512
2.67363e-05
0.00140931
1.0102e-05
0.00141292
-7.13622e-06
0.00141593
-2.499e-05
0.00141834
-4.34587e-05
0.00142013
-6.25457e-05
0.00142129
-8.22537e-05
0.00142181
-0.000102584
0.00142167
-0.000123537
0.00142086
-0.000145112
0.00141938
-0.000167304
0.00141721
-0.000190109
0.00141436
-0.000213521
0.00141082
-0.000237532
0.00140658
-0.000262131
0.00140166
-0.000287306
0.00139604
-0.00031304
0.00138974
-0.000339312
0.00138274
-0.000366094
0.00137505
-0.000393346
0.00136662
-0.000421013
0.00135744
-0.000449021
0.00134743
-0.000477277
0.00133656
-0.000505664
0.00132474
-0.000534045
0.00131193
-0.000562267
0.00129808
-0.000590161
0.00128319
-0.000617551
0.00126726
-0.000644244
0.00125035
-0.000670052
0.00123256
-0.000694745
0.00121402
-0.000718133
0.00119487
-0.000739941
0.00117534
-0.000759893
0.00115567
-0.000777801
0.00113615
-0.000793189
-0.000805727
0.00111724
0.00103964
0.00028928
-0.00102426
0.00105489
0.000286343
0.00106999
0.000283147
0.00108492
0.000279696
0.00109969
0.000275983
0.00111427
0.000271998
0.00112866
0.000267732
0.00114285
0.000263174
0.00115681
0.000258314
0.00117054
0.000253142
0.00118403
0.000247647
0.00119726
0.000241818
0.00121022
0.000235645
0.00122291
0.000229117
0.0012353
0.000222222
0.00124738
0.000214949
0.00125915
0.000207286
0.00127058
0.000199222
0.00128167
0.000190744
0.0012924
0.000181841
0.00130275
0.0001725
0.00131272
0.000162709
0.00132229
0.000152457
0.00133144
0.00014173
0.00134016
0.000130518
0.00134843
0.000118807
0.00135625
0.000106588
0.0013636
9.3847e-05
0.00137046
8.05745e-05
0.00137682
6.67593e-05
0.00138266
5.23914e-05
0.00138798
3.7461e-05
0.00139276
2.19592e-05
0.00139698
5.87957e-06
0.00140064
-1.07944e-05
0.00140372
-2.80688e-05
0.0014062
-4.59454e-05
0.00140809
-6.44284e-05
0.00140935
-8.35214e-05
0.00141
-0.000103227
0.00141001
-0.000123545
0.00140937
-0.000144477
0.00140809
-0.000166021
0.00140615
-0.000188173
0.00140356
-0.00021093
0.00140031
-0.000234283
0.0013964
-0.000258223
0.00139183
-0.000282737
0.0013866
-0.000307804
0.00138068
-0.000333399
0.00137407
-0.000359482
0.00136673
-0.000386002
0.00135861
-0.000412893
0.00134966
-0.000440072
0.00133982
-0.000467439
0.00132904
-0.00049488
0.00131726
-0.000522268
0.00130446
-0.000549468
0.00129064
-0.000576337
0.00127581
-0.000602726
0.00126004
-0.000628473
0.00124341
-0.000653426
0.00122605
-0.000677382
0.00120812
-0.000700198
0.00118978
-0.000721608
0.00117131
-0.000741426
0.001153
-0.000759488
0.00113527
-0.000775457
-0.000789363
0.00111891
0.00102875
0.000273944
-0.00101341
0.00104395
0.000271143
0.001059
0.000268093
0.0010739
0.0002648
0.00108862
0.000261257
0.00110317
0.000257453
0.00111752
0.000253381
0.00113166
0.000249029
0.00114559
0.000244387
0.00115929
0.000239446
0.00117274
0.000234194
0.00118594
0.000228622
0.00119886
0.000222717
0.00121151
0.00021647
0.00122386
0.000209869
0.00123591
0.000202902
0.00124764
0.000195559
0.00125903
0.000187828
0.00127008
0.000179696
0.00128077
0.000171152
0.00129109
0.000162184
0.00130102
0.00015278
0.00131055
0.000142927
0.00131966
0.000132614
0.00132835
0.000121828
0.0013366
0.000110559
0.0013444
9.87928e-05
0.00135172
8.65196e-05
0.00135857
7.37276e-05
0.00136492
6.04061e-05
0.00137077
4.65445e-05
0.0013761
3.21331e-05
0.00138089
1.71627e-05
0.00138515
1.62603e-06
0.00138885
-1.44953e-05
0.00139198
-3.12036e-05
0.00139454
-4.85032e-05
0.00139651
-6.63993e-05
0.00139789
-8.48963e-05
0.00139866
-0.000103998
0.00139882
-0.000123706
0.00139836
-0.000144022
0.00139729
-0.000164945
0.00139559
-0.000186473
0.00139326
-0.0002086
0.00139029
-0.00023132
0.00138669
-0.000254618
0.00138243
-0.000278476
0.00137749
-0.000302867
0.00137185
-0.000327755
0.00136546
-0.000353091
0.00135827
-0.000378816
0.00135024
-0.000404858
0.0013413
-0.000431133
0.00133141
-0.000457547
0.00132052
-0.000483999
0.00130864
-0.000510379
0.00129574
-0.000536576
0.00128188
-0.000562471
0.00126709
-0.000587943
0.00125148
-0.000612858
0.00123515
-0.000637092
0.00121824
-0.000660472
0.00120093
-0.000682894
0.00118344
-0.000704116
0.00116607
-0.000724057
0.00114921
-0.000742629
0.00113352
-0.000759768
-0.000776038
0.0011202
0.0010185
0.000258654
-0.00100321
0.00103366
0.000255988
0.00104866
0.000253085
0.00106351
0.00024995
0.00107819
0.000246576
0.00109269
0.000242954
0.001107
0.000239074
0.0011211
0.000234927
0.00113499
0.000230504
0.00114864
0.000225792
0.00116205
0.000220783
0.00117521
0.000215466
0.00118809
0.00020983
0.0012007
0.000203863
0.00121301
0.000197556
0.00122502
0.000190897
0.0012367
0.000183873
0.00124806
0.000176475
0.00125906
0.000168689
0.00126971
0.000160504
0.00127999
0.000151908
0.00128988
0.000142889
0.00129937
0.000133435
0.00130845
0.000123534
0.0013171
0.000113173
0.00132532
0.000102341
0.00133309
9.10253e-05
0.00134039
7.92148e-05
0.00134722
6.68979e-05
0.00135357
5.40634e-05
0.00135941
4.07006e-05
0.00136474
2.67993e-05
0.00136956
1.23503e-05
0.00137384
-2.65637e-06
0.00137758
-1.8237e-05
0.00138077
-3.4394e-05
0.0013834
-5.11335e-05
0.00138546
-6.84616e-05
0.00138695
-8.63836e-05
0.00138786
-0.000104904
0.00138818
-0.000124025
0.0013879
-0.000143748
0.00138703
-0.000164071
0.00138555
-0.000184992
0.00138345
-0.0002065
0.00138071
-0.000228584
0.00137732
-0.000251225
0.00137324
-0.000274396
0.00136843
-0.000298063
0.00136286
-0.000322182
0.00135647
-0.0003467
0.00134921
-0.000371557
0.00134104
-0.000396683
0.00133191
-0.000422004
0.0013218
-0.000447437
0.0013107
-0.000472899
0.00129862
-0.000498302
0.0012856
-0.000523553
0.00127168
-0.000548557
0.00125696
-0.000573218
0.00124153
-0.000597427
0.00122552
-0.000621085
0.0012091
-0.000644051
0.00119246
-0.000666258
0.00117587
-0.00068752
0.00115969
-0.000707887
0.00114453
-0.000727462
0.00113139
-0.000746629
-0.000766933
0.00112228
0.00100895
0.00024341
-0.000993701
0.00102405
0.00024088
0.00103901
0.000238124
0.00105382
0.000235148
0.00106845
0.000231943
0.0010829
0.000228502
0.00109716
0.000224816
0.00111121
0.000220874
0.00112505
0.000216668
0.00113865
0.000212186
0.00115202
0.00020742
0.00116513
0.000202358
0.00117797
0.000196989
0.00119053
0.000191304
0.00120279
0.00018529
0.00121475
0.000178937
0.00122639
0.000172234
0.0012377
0.000165167
0.00124866
0.000157727
0.00125926
0.000149901
0.00126949
0.000141677
0.00127934
0.000133042
0.00128879
0.000123985
0.00129783
0.000114494
0.00130645
0.000104555
0.00131463
9.41568e-05
0.00132237
8.32874e-05
0.00132965
7.19347e-05
0.00133646
6.00869e-05
0.00134279
4.77324e-05
0.00134864
3.486e-05
0.00135398
2.14591e-05
0.00135881
7.52049e-06
0.00136312
-6.96986e-06
0.00136691
-2.20235e-05
0.00137016
-3.7645e-05
0.00137286
-5.38415e-05
0.00137502
-7.06196e-05
0.00137662
-8.79845e-05
0.00137766
-0.00010594
0.00137812
-0.000124487
0.001378
-0.000143625
0.00137728
-0.00016335
0.00137594
-0.000183653
0.00137396
-0.00020452
0.00137131
-0.000225933
0.00136795
-0.000247867
0.00136384
-0.00027029
0.00135894
-0.000293164
0.00135321
-0.000316445
0.00134659
-0.000340082
0.00133905
-0.00036402
0.00133057
-0.000388199
0.00132112
-0.000412556
0.00131071
-0.000437026
0.00129935
-0.000461539
0.00128707
-0.000486027
0.00127394
-0.000510415
0.00126001
-0.00053463
0.00124539
-0.000558595
0.00123019
-0.000582228
0.00121455
-0.000605452
0.00119867
-0.00062817
0.00118277
-0.000650359
0.00116721
-0.000671958
0.00115254
-0.000693211
0.00113965
-0.000714577
0.00112993
-0.000736905
-0.000762669
0.00112566
0.00100012
0.000228209
-0.000984914
0.00101518
0.000225816
0.00103009
0.000223209
0.00104485
0.000220392
0.00105944
0.000217358
0.00107384
0.0002141
0.00108805
0.000210607
0.00110205
0.000206871
0.00111584
0.000202883
0.00112939
0.000198631
0.0011427
0.000194107
0.00115576
0.0001893
0.00116855
0.0001842
0.00118106
0.000178795
0.00119328
0.000173075
0.00120518
0.000167028
0.00121677
0.000160644
0.00122803
0.00015391
0.00123895
0.000146814
0.0012495
0.000139346
0.00125969
0.000131492
0.00126949
0.00012324
0.00127889
0.000114578
0.00128789
0.000105494
0.00129647
9.59739e-05
0.00130463
8.60063e-05
0.00131233
7.55784e-05
0.00131959
6.46778e-05
0.00132639
5.32922e-05
0.00133271
4.14099e-05
0.00133855
2.9019e-05
0.0013439
1.61085e-05
0.00134875
2.66874e-06
0.0013531
-1.13167e-05
0.00135693
-2.58551e-05
0.00136024
-4.09529e-05
0.00136301
-5.6617e-05
0.00136525
-7.28529e-05
0.00136693
-8.96644e-05
0.00136804
-0.000107053
0.00136857
-0.000125016
0.00136849
-0.00014355
0.00136779
-0.000162645
0.00136642
-0.000182288
0.00136436
-0.000202462
0.00136158
-0.000223145
0.00135802
-0.000244308
0.00135365
-0.000265921
0.00134843
-0.000287947
0.00134233
-0.000310345
0.00133532
-0.000333072
0.00132738
-0.000356082
0.00131851
-0.000379326
0.00130871
-0.000402753
0.00129799
-0.000426309
0.00128639
-0.000449943
0.00127397
-0.000473599
0.00126077
-0.00049722
0.00124689
-0.000520752
0.00123244
-0.000544138
0.00121753
-0.000567323
0.00120234
-0.00059026
0.00118709
-0.000612918
0.00117209
-0.000635359
0.00115789
-0.000657761
0.00114533
-0.000680652
0.00113573
-0.00070497
0.00113062
-0.000731801
-0.000763546
0.0011315
0.000992059
0.000213047
-0.000976898
0.00100708
0.000210794
0.00102195
0.000208336
0.00103667
0.00020568
0.00105121
0.000202818
0.00106556
0.000199743
0.00107972
0.000196445
0.00109368
0.000192916
0.00110742
0.000189146
0.00112092
0.000185126
0.00113418
0.000180845
0.00114719
0.000176293
0.00115993
0.00017146
0.00117239
0.000166336
0.00118455
0.000160909
0.00119641
0.000155169
0.00120795
0.000149103
0.00121916
0.0001427
0.00123003
0.000135949
0.00124054
0.000128837
0.00125068
0.000121352
0.00126044
0.000113481
0.0012698
0.000105212
0.00127877
9.65312e-05
0.00128731
8.74267e-05
0.00129543
7.78854e-05
0.00130312
6.78942e-05
0.00131036
5.74405e-05
0.00131714
4.65117e-05
0.00132345
3.50955e-05
0.00132929
2.318e-05
0.00133464
1.07545e-05
0.0013395
-2.1923e-06
0.00134386
-1.5675e-05
0.00134771
-2.96985e-05
0.00135102
-4.42692e-05
0.0013538
-5.93925e-05
0.00135602
-7.50716e-05
0.00135766
-9.13074e-05
0.00135871
-0.000108098
0.00135913
-0.000125439
0.0013589
-0.000143322
0.00135799
-0.000161736
0.00135637
-0.000180664
0.001354
-0.000200089
0.00135084
-0.000219989
0.00134687
-0.000240337
0.00134205
-0.000261106
0.00133637
-0.000282263
0.0013298
-0.000303775
0.00132234
-0.000325607
0.00131397
-0.000347719
0.00130472
-0.000370073
0.0012946
-0.000392629
0.00128363
-0.000415346
0.00127187
-0.000438182
0.00125937
-0.000461096
0.0012462
-0.000484049
0.00123245
-0.000507003
0.00121823
-0.000529925
0.00120371
-0.000552797
0.00118908
-0.000575627
0.00117465
-0.000598496
0.00116094
-0.00062165
0.00114879
-0.000645603
0.00113936
-0.000671231
0.00113407
-0.000699674
0.0011339
-0.000731631
-0.000766133
0.00113649
0.000984856
0.00019792
-0.000969729
0.000999843
0.000195807
0.00101468
0.000193501
0.00102935
0.000191006
0.00104385
0.000188318
0.00105817
0.000185427
0.00107229
0.000182325
0.0010862
0.000179004
0.00109989
0.000175453
0.00111336
0.000171663
0.00112658
0.000167626
0.00113954
0.000163329
0.00115223
0.000158765
0.00116465
0.000153921
0.00117677
0.000148787
0.00118859
0.000143352
0.00120009
0.000137605
0.00121125
0.000131533
0.00122208
0.000125125
0.00123255
0.000118368
0.00124265
0.00011125
0.00125237
0.000103759
0.0012617
9.58808e-05
0.00127063
8.76033e-05
0.00127915
7.89132e-05
0.00128723
6.97973e-05
0.00129488
6.02428e-05
0.00130209
5.02366e-05
0.00130883
3.97664e-05
0.00131511
2.88199e-05
0.0013209
1.73857e-05
0.0013262
5.45356e-06
0.001331
-6.98921e-06
0.00133528
-1.99517e-05
0.00133902
-3.34387e-05
0.0013422
-4.74552e-05
0.00134482
-6.20047e-05
0.00134683
-7.70885e-05
0.00134823
-9.27056e-05
0.00134899
-0.000108852
0.00134907
-0.000125522
0.00134845
-0.000142707
0.00134711
-0.000160394
0.00134502
-0.000178568
0.00134214
-0.000197214
0.00133846
-0.00021631
0.00133396
-0.000235836
0.00132862
-0.000255766
0.00132243
-0.000276074
0.00131539
-0.000296734
0.0013075
-0.000317714
0.00129876
-0.000338985
0.00128921
-0.000360516
0.00127885
-0.000382275
0.00126774
-0.000404231
0.00125591
-0.000426353
0.00124343
-0.000448616
0.00123038
-0.000470995
0.00121685
-0.000493478
0.00120299
-0.000516067
0.001189
-0.000538805
0.00117519
-0.000561814
0.00116207
-0.000585373
0.00115043
-0.000610018
0.00114141
-0.000636576
0.00113614
-0.000665965
0.00113487
-0.000698407
0.001135
-0.000731754
-0.000758941
0.0011278
0.00097864
0.000182819
-0.000963539
0.0009936
0.000180848
0.00100841
0.000178693
0.00102305
0.000176362
0.00103752
0.000173848
0.00105181
0.000171142
0.0010659
0.000168236
0.00107978
0.000165122
0.00109344
0.000161791
0.00110687
0.000158233
0.00112006
0.000154438
0.00113299
0.000150398
0.00114565
0.000146102
0.00115803
0.000141539
0.00117012
0.000136698
0.00118191
0.00013157
0.00119337
0.000126141
0.0012045
0.000120402
0.00121529
0.000114338
0.00122571
0.00010794
0.00123577
0.000101193
0.00124544
9.40854e-05
0.00125472
8.66043e-05
0.00126359
7.87365e-05
0.00127203
7.04693e-05
0.00128004
6.17894e-05
0.0012876
5.26841e-05
0.00129469
4.31408e-05
0.00130131
3.31473e-05
0.00130744
2.26919e-05
0.00131306
1.17639e-05
0.00131816
3.53238e-07
0.00132273
-1.15522e-05
0.00132673
-2.39578e-05
0.00133016
-3.68688e-05
0.001333
-5.02896e-05
0.00133522
-6.42231e-05
0.0013368
-7.86698e-05
0.00133772
-9.36284e-05
0.00133796
-0.000109095
0.0013375
-0.000125064
0.00133632
-0.000141527
0.0013344
-0.000158473
0.00133172
-0.000175889
0.00132827
-0.000193761
0.00132403
-0.000212071
0.001319
-0.000230801
0.00131316
-0.00024993
0.00130652
-0.000269437
0.00129909
-0.000289298
0.00129086
-0.00030949
0.00128186
-0.000329988
0.00127212
-0.000350767
0.00126165
-0.000371805
0.00125049
-0.000393079
0.00123871
-0.000414572
0.00122637
-0.000436273
0.00121356
-0.000458183
0.00120041
-0.000480326
0.00118711
-0.000502776
0.00117401
-0.000525696
0.0011616
-0.000549406
0.00115067
-0.000574446
0.00114224
-0.000601585
0.00113715
-0.000631485
0.0011351
-0.000663917
0.00113287
-0.000696182
0.00112284
-0.000721724
-0.000730549
0.00109445
0.000973606
0.000167735
-0.000958522
0.000988547
0.000165907
0.00100333
0.000163906
0.00101796
0.000161739
0.00103241
0.000159399
0.00104667
0.000156879
0.00106074
0.00015417
0.00107459
0.000151265
0.00108823
0.000148154
0.00110163
0.000144829
0.00111479
0.000141281
0.00112769
0.000137499
0.00114032
0.000133475
0.00115266
0.000129197
0.0011647
0.000124655
0.00117643
0.00011984
0.00118784
0.000114738
0.0011989
0.000109339
0.0012096
0.000103632
0.00121994
9.76037e-05
0.00122989
9.12422e-05
0.00123944
8.4535e-05
0.00124858
7.74693e-05
0.00125728
7.00325e-05
0.00126554
6.22117e-05
0.00127333
5.39939e-05
0.00128065
4.53666e-05
0.00128747
3.63173e-05
0.00129379
2.6834e-05
0.00129957
1.69052e-05
0.00130482
6.52035e-06
0.0013095
-4.33122e-06
0.00131361
-1.56598e-05
0.00131712
-2.7471e-05
0.00132003
-3.97711e-05
0.0013223
-5.25649e-05
0.00132393
-6.58555e-05
0.00132491
-7.96442e-05
0.00132521
-9.393e-05
0.00132482
-0.00010871
0.00132374
-0.000123979
0.00132194
-0.00013973
0.00131942
-0.000155953
0.00131617
-0.000172637
0.00131218
-0.00018977
0.00130744
-0.000207335
0.00130196
-0.000225318
0.00129573
-0.000243701
0.00128876
-0.000262465
0.00128105
-0.000281591
0.00127263
-0.000301061
0.00126349
-0.000320856
0.00125368
-0.000340957
0.00124323
-0.000361349
0.00123217
-0.000382023
0.00122058
-0.000402977
0.00120853
-0.000424226
0.00119616
-0.000445816
0.00118369
-0.000467849
0.00117144
-0.00049053
0.00115995
-0.000514209
0.00114998
-0.000539426
0.00114235
-0.000566823
0.00113752
-0.000596756
0.00113441
-0.000628377
0.00112901
-0.000658511
0.0011135
-0.000680676
0.00107815
-0.000686373
-0.000667194
0.0010148
0.000969817
0.000152682
-0.000954764
0.000984724
0.000150999
0.000999475
0.000149155
0.00101406
0.000147154
0.00102847
0.000144992
0.00104269
0.000142661
0.0010567
0.000140153
0.00107051
0.000137462
0.00108408
0.000134578
0.00109742
0.000131493
0.0011105
0.000128198
0.00112331
0.000124685
0.00113585
0.000120943
0.00114808
0.000116963
0.00116
0.000112734
0.00117159
0.000108247
0.00118284
0.00010349
0.00119373
9.84522e-05
0.00120424
9.31219e-05
0.00121435
8.74873e-05
0.00122406
8.15364e-05
0.00123334
7.52567e-05
0.00124217
6.86355e-05
0.00125054
6.16601e-05
0.00125844
5.43175e-05
0.00126584
4.65947e-05
0.00127273
3.84789e-05
0.00127909
2.99572e-05
0.0012849
2.10173e-05