/*--------------------------------*- C++ -*----------------------------------*\
| =========                 |                                                 |
| \\      /  F ield         | OpenFOAM: The Open Source CFD Toolbox           |
|  \\    /   O peration     | Version:  2312                                  |
|   \\  /    A nd           | Website:  www.openfoam.com                      |
|    \\/     M anipulation  |                                                 |
\*---------------------------------------------------------------------------*/
FoamFile
{
    version     2.0;
    format      ascii;
    arch        "LSB;label=32;scalar=64";
    class       volVectorField;
    location    "400";
    object      U;
}
// * * * * * * * * * * * * * * * * * * * * * * * * * * * * * * * * * * * * * //

dimensions      [0 1 -1 0 0 0 0];

internalField   nonuniform List<vector> 
76025
(
(0.0381549 -0.00804922 0)
(0.0383613 -0.00808255 6.24132e-23)
(0.0385691 -0.00811125 0)
(0.0387791 -0.00813505 0)
(0.0389924 -0.00815582 2.53586e-23)
(0.0392125 -0.00816189 2.01024e-22)
(0.0394338 -0.00817044 -4.5075e-22)
(0.0396582 -0.00816735 2.22837e-22)
(0.039879 -0.00816273 1.2284e-22)
(0.0400995 -0.00815124 -1.49394e-22)
(0.0403231 -0.00813267 1.46259e-23)
(0.04055 -0.00810482 -6.25124e-22)
(0.0407778 -0.00807362 8.27974e-22)
(0.0410036 -0.00803286 0)
(0.0412287 -0.00798054 -2.81486e-22)
(0.0414512 -0.00793007 0)
(0.0416746 -0.00786208 0)
(0.0418973 -0.00779663 0)
(0.0421193 -0.00771632 -3.65712e-22)
(0.0423387 -0.00763576 4.19456e-22)
(0.0425562 -0.00754193 4.45264e-22)
(0.042771 -0.00744461 1.38977e-21)
(0.0429802 -0.00733804 -9.46817e-22)
(0.0431878 -0.0072211 -1.57487e-21)
(0.0433933 -0.00710054 -5.00181e-23)
(0.0435964 -0.00697563 -6.33259e-22)
(0.0437968 -0.00683396 1.7856e-21)
(0.0439928 -0.00668929 -1.827e-21)
(0.0441895 -0.00653257 6.2997e-22)
(0.0443812 -0.00636497 -6.54702e-22)
(0.0445636 -0.00620867 -6.83971e-22)
(0.0447451 -0.0060391 1.47966e-21)
(0.0449232 -0.00585295 -2.23906e-21)
(0.0450973 -0.00566888 -4.06903e-22)
(0.0452664 -0.00546982 2.03886e-21)
(0.0454308 -0.00526997 1.21824e-23)
(0.0455931 -0.00505847 -4.13214e-22)
(0.0457518 -0.00483571 2.17388e-22)
(0.0459054 -0.00461621 9.70012e-24)
(0.0460482 -0.00438514 -3.2708e-22)
(0.0461841 -0.00414963 2.17974e-22)
(0.0463194 -0.00390202 -1.079e-22)
(0.0464476 -0.00363901 2.15311e-22)
(0.0465665 -0.00337775 -4.38004e-22)
(0.0466746 -0.00310482 -4.50879e-22)
(0.0467781 -0.00282817 8.63107e-22)
(0.0468732 -0.00253488 8.94981e-22)
(0.0469561 -0.0022376 -2.71263e-21)
(0.0470271 -0.00193213 1.75173e-21)
(0.047091 -0.00161955 -3.41605e-23)
(0.0471437 -0.00129711 -4.46343e-21)
(0.0471824 -0.000962219 -1.72648e-21)
(0.0472086 -0.000618055 1.79522e-21)
(0.0472179 -0.000264513 0)
(0.0472021 9.86442e-05 -1.69405e-21)
(0.047173 0.000471151 -1.76078e-21)
(0.0471256 0.000859472 4.05899e-23)
(0.0470529 0.00126631 -1.6747e-21)
(0.0469582 0.00169218 1.64034e-21)
(0.0468388 0.002134 -4.70276e-21)
(0.0467041 0.0025697 -3.18204e-21)
(0.0465266 0.00303769 -1.8506e-22)
(0.0463086 0.00352873 0)
(0.046045 0.00404 6.95201e-21)
(0.0457155 0.0045713 -2.45059e-21)
(0.0453173 0.00513403 1.27305e-21)
(0.0448443 0.0057363 -2.25929e-21)
(0.0442627 0.00633136 2.3315e-21)
(0.0435624 0.00689806 4.15899e-21)
(0.0380973 -0.00841676 8.41301e-23)
(0.0383121 -0.00845103 1.2639e-22)
(0.0385287 -0.00847958 -1.90264e-22)
(0.0387483 -0.0085027 0)
(0.0389703 -0.00852011 -1.59594e-22)
(0.0391978 -0.00852993 -1.12248e-22)
(0.0394267 -0.00853428 2.54071e-22)
(0.0396588 -0.00853166 0)
(0.0398922 -0.00852298 1.51474e-23)
(0.0401257 -0.00850779 1.54005e-22)
(0.0403601 -0.00848567 -1.81424e-22)
(0.0405959 -0.00845592 1.89969e-23)
(0.0408325 -0.00841934 0)
(0.04107 -0.00837505 0)
(0.0413079 -0.00832239 -6.59654e-22)
(0.0415436 -0.00826392 1.60858e-21)
(0.0417796 -0.00819622 3.71849e-22)
(0.0420137 -0.00812247 -1.20274e-21)
(0.0422471 -0.00804008 8.0269e-22)
(0.0424782 -0.00795107 -4.306e-22)
(0.0427082 -0.00785354 5.13317e-22)
(0.0429354 -0.00774891 -9.7348e-22)
(0.0431591 -0.00763626 1.0847e-21)
(0.04338 -0.00751492 -1.68658e-21)
(0.0435982 -0.00738621 1.14452e-21)
(0.0438134 -0.00725047 1.85291e-21)
(0.0440254 -0.00710597 -1.25949e-21)
(0.0442323 -0.00695429 0)
(0.0444363 -0.0067939 0)
(0.0446371 -0.00662573 -7.48633e-22)
(0.0448341 -0.00645019 0)
(0.0450272 -0.00626766 -8.07523e-22)
(0.045215 -0.00607685 8.27444e-22)
(0.0453971 -0.00587951 -1.26667e-21)
(0.045574 -0.00567352 2.14614e-23)
(0.0457458 -0.00545996 -4.38155e-22)
(0.0459136 -0.00523706 0)
(0.0460762 -0.00500849 -9.23998e-22)
(0.0462327 -0.00477411 7.00901e-22)
(0.0463819 -0.00453223 -5.79617e-22)
(0.046524 -0.004281 3.52436e-22)
(0.0466602 -0.00402091 -3.54306e-24)
(0.0467891 -0.00375585 1.2758e-22)
(0.0469093 -0.00348388 -1.18832e-22)
(0.047021 -0.00320278 9.75792e-22)
(0.0471245 -0.0029119 -4.92038e-22)
(0.0472189 -0.00261361 -5.08292e-22)
(0.0473026 -0.00230834 9.42715e-22)
(0.0473752 -0.00199157 2.89468e-21)
(0.0474375 -0.00166417 -1.73043e-23)
(0.0474881 -0.00132791 2.85289e-21)
(0.0475251 -0.000981454 -9.56285e-22)
(0.0475483 -0.000625321 -2.80733e-21)
(0.0475559 -0.000259799 1.87756e-21)
(0.0475455 0.000116557 0)
(0.0475162 0.000510826 5.54136e-21)
(0.0474702 0.000915815 1.7779e-24)
(0.0474033 0.00133619 -1.79311e-21)
(0.0473164 0.00177172 -1.80948e-21)
(0.047208 0.00222325 0)
(0.0470731 0.00269591 1.57952e-21)
(0.0469063 0.00318552 4.75582e-21)
(0.0466958 0.00369833 0)
(0.0464333 0.00423654 -2.88483e-21)
(0.0461046 0.00480316 1.61636e-21)
(0.0456947 0.00540665 -2.7246e-21)
(0.0452014 0.00603823 1.31601e-21)
(0.0446018 0.00668195 -2.42423e-21)
(0.0438819 0.00737774 -2.25291e-21)
(0.0380348 -0.00880206 -3.55451e-22)
(0.0382603 -0.00883633 2.24922e-22)
(0.0384878 -0.0088649 -2.03905e-23)
(0.0387186 -0.00888776 -7.41816e-23)
(0.0389518 -0.00890408 1.13553e-22)
(0.0391876 -0.00891361 3.09336e-22)
(0.039426 -0.00891624 -4.08267e-22)
(0.0396669 -0.00891201 0)
(0.0399102 -0.00890076 1.70097e-23)
(0.0401551 -0.00888239 0)
(0.0404008 -0.00885672 2.20178e-22)
(0.0406472 -0.00882362 -2.29565e-22)
(0.0408941 -0.00878295 -1.4154e-21)
(0.0411414 -0.0087346 1.13406e-21)
(0.0413892 -0.00867836 -3.16303e-22)
(0.0416367 -0.0086143 -1.0894e-21)
(0.0418837 -0.00854241 3.70037e-22)
(0.0421295 -0.00846258 4.03129e-22)
(0.0423739 -0.00837498 1.38199e-21)
(0.0426166 -0.00827932 -9.21765e-22)
(0.0428571 -0.00817572 -5.2128e-22)
(0.0430953 -0.00806408 1.09729e-21)
(0.0433307 -0.00794431 -5.18074e-22)
(0.0435633 -0.00781614 -6.11452e-22)
(0.0437928 -0.00767986 0)
(0.0440187 -0.00753568 6.71607e-22)
(0.0442406 -0.0073836 6.8928e-22)
(0.0444584 -0.0072233 -6.64638e-22)
(0.0446722 -0.00705465 0)
(0.044882 -0.00687803 1.54345e-21)
(0.0450878 -0.00669322 -8.22324e-22)
(0.0452887 -0.00650108 -4.26147e-23)
(0.045484 -0.00630134 0)
(0.0456738 -0.00609373 4.34612e-22)
(0.0458581 -0.00587813 -1.38173e-21)
(0.0460366 -0.00565467 9.30567e-22)
(0.0462093 -0.00542371 0)
(0.0463761 -0.00518564 7.2263e-22)
(0.0465365 -0.00494027 -7.31184e-22)
(0.0466899 -0.00468747 -1.19955e-22)
(0.0468358 -0.00442651 0)
(0.0469744 -0.00415767 -2.49124e-22)
(0.0471054 -0.00388142 -1.26081e-22)
(0.047228 -0.00359703 1.20398e-22)
(0.0473418 -0.00330421 -7.43084e-22)
(0.0474464 -0.00300281 -5.17468e-22)
(0.0475416 -0.00269315 9.88806e-22)
(0.0476264 -0.00237459 -1.017e-21)
(0.0477003 -0.00204624 1.03333e-21)
(0.047763 -0.00170829 -1.00383e-21)
(0.047814 -0.0013609 -9.82212e-22)
(0.0478522 -0.00100329 2.05211e-21)
(0.0478767 -0.00063506 0)
(0.0478865 -0.00025577 2.02701e-21)
(0.0478801 0.000135791 4.73279e-23)
(0.0478571 0.000541471 -1.94371e-21)
(0.0478179 0.00096074 -1.91223e-21)
(0.0477606 0.0013957 3.75658e-21)
(0.0476837 0.00184781 -4.86988e-23)
(0.0475843 0.00231851 1.84778e-21)
(0.0474571 0.00280985 -3.59151e-21)
(0.0472942 0.0033234 -1.79515e-21)
(0.0470844 0.00386321 -8.7468e-24)
(0.0468168 0.0044322 -1.56708e-21)
(0.0464802 0.00503249 -1.40634e-21)
(0.0460619 0.00566722 -4.46613e-21)
(0.0455548 0.00633619 0)
(0.0449385 0.00703258 -1.36191e-21)
(0.0442263 0.00779193 1.30918e-21)
(0.0379676 -0.0092074 0)
(0.038205 -0.00924206 5.03951e-23)
(0.0384445 -0.00927064 2.18177e-23)
(0.0386873 -0.00929315 -1.27824e-24)
(0.0389325 -0.00930881 2.06157e-22)
(0.0391799 -0.00931727 -3.30006e-22)
(0.0394294 -0.00931838 1.00315e-22)
(0.0396809 -0.00931214 -1.47851e-22)
(0.0399345 -0.00929841 -1.60884e-22)
(0.0401897 -0.00927712 -8.64796e-22)
(0.0404461 -0.0092481 8.84635e-22)
(0.0407034 -0.00921124 1.1121e-21)
(0.0409613 -0.00916642 -2.10925e-22)
(0.0412194 -0.00911356 -1.29667e-21)
(0.0414776 -0.00905252 1.04792e-21)
(0.0417356 -0.00898327 -4.00385e-22)
(0.0419929 -0.00890581 4.31828e-22)
(0.0422493 -0.00882008 4.63235e-22)
(0.0425043 -0.00872611 -1.45033e-21)
(0.0427575 -0.00862382 4.61674e-22)
(0.0430086 -0.0085132 5.23841e-22)
(0.0432571 -0.00839419 0)
(0.0435029 -0.00826678 1.26684e-21)
(0.0437456 -0.0081309 -6.1975e-22)
(0.043985 -0.00798665 -1.35292e-21)
(0.0442206 -0.00783414 -1.44422e-21)
(0.0444522 -0.00767332 2.86683e-21)
(0.0446796 -0.0075041 -1.50962e-21)
(0.0449025 -0.00732655 0)
(0.0451207 -0.00714081 -1.63198e-21)
(0.0453341 -0.00694706 -3.41014e-23)
(0.0455422 -0.00674547 1.71819e-21)
(0.0457447 -0.00653595 -9.19675e-22)
(0.0459414 -0.00631841 2.35713e-21)
(0.0461322 -0.00609278 -4.59664e-22)
(0.0463167 -0.00585951 0)
(0.0464948 -0.00561869 0)
(0.0466664 -0.00537026 2.59175e-22)
(0.0468311 -0.00511428 2.49345e-22)
(0.0469885 -0.00485071 1.31896e-22)
(0.0471381 -0.00457928 -4.1514e-24)
(0.04728 -0.00429989 1.27492e-22)
(0.0474138 -0.00401262 0)
(0.0475391 -0.00371737 -1.23629e-23)
(0.0476553 -0.0034139 0)
(0.0477622 -0.00310192 5.08022e-22)
(0.0478595 -0.00278126 6.37561e-24)
(0.0479466 -0.00245166 -1.61322e-21)
(0.0480229 -0.00211265 0)
(0.0480881 -0.00176387 -1.06183e-21)
(0.0481418 -0.00140509 1.04896e-21)
(0.0481831 -0.00103579 -2.04909e-21)
(0.0482115 -0.000655474 0)
(0.0482263 -0.000263519 -6.21818e-21)
(0.0482268 0.000141031 4.39097e-23)
(0.0482125 0.000559566 2.02489e-21)
(0.0481829 0.000992986 1.99143e-21)
(0.0481361 0.00144283 0)
(0.0480695 0.00191102 0)
(0.0479782 0.00239963 -1.81497e-21)
(0.0478554 0.00291121 3.51943e-21)
(0.0476923 0.00344822 3.40231e-21)
(0.0474783 0.00401368 0)
(0.0472032 0.00461082 -3.38364e-21)
(0.0468572 0.00524158 0)
(0.0464293 0.00590883 4.51683e-21)
(0.045913 0.00661453 -1.51302e-21)
(0.0452915 0.00735487 -1.4882e-21)
(0.0445821 0.00816578 -1.56624e-21)
(0.0378939 -0.00963358 0)
(0.0381445 -0.00966897 0)
(0.0383971 -0.00969779 -1.70077e-24)
(0.0386529 -0.0097201 1.75928e-22)
(0.0389112 -0.00973509 -2.43503e-22)
(0.0391714 -0.00974241 8.51398e-23)
(0.0394335 -0.00974193 0)
(0.0396973 -0.00973361 1.48686e-22)
(0.0399627 -0.00971731 0)
(0.0402294 -0.00969294 4.7767e-22)
(0.0404973 -0.00966037 8.87435e-23)
(0.040766 -0.00961949 -5.4166e-22)
(0.0410352 -0.00957021 0)
(0.0413046 -0.00951246 7.3623e-22)
(0.0415738 -0.00944617 -2.30614e-21)
(0.0418425 -0.00937128 1.63526e-21)
(0.0421105 -0.00928777 -2.22739e-21)
(0.0423774 -0.00919561 4.63719e-22)
(0.0426427 -0.00909477 -5.30246e-22)
(0.0429062 -0.00898526 5.28103e-22)
(0.0431674 -0.00886705 5.88579e-22)
(0.0434259 -0.00874014 -1.81324e-21)
(0.0436816 -0.00860454 -1.28207e-21)
(0.0439339 -0.00846025 0)
(0.0441826 -0.00830733 1.43649e-21)
(0.0444274 -0.00814582 7.74218e-22)
(0.0446679 -0.00797575 -2.25016e-21)
(0.0449039 -0.00779718 7.77292e-22)
(0.0451351 -0.00761016 -1.68715e-21)
(0.0453613 -0.0074148 2.53359e-21)
(0.0455821 -0.0072112 -9.17215e-22)
(0.0457973 -0.00699946 4.74647e-22)
(0.0460066 -0.0067796 0)
(0.0462097 -0.00655167 -4.81771e-22)
(0.0464066 -0.00631557 -4.97368e-22)
(0.0465967 -0.00607194 0)
(0.0467801 -0.00582069 5.37673e-22)
(0.0469564 -0.00556173 -7.93917e-22)
(0.0471255 -0.00529511 5.29422e-22)
(0.0472869 -0.00502079 -2.6987e-22)
(0.0474404 -0.00473865 -4.55066e-24)
(0.0475858 -0.00444861 -2.08828e-22)
(0.0477228 -0.00415064 6.80982e-23)
(0.0478512 -0.00384464 2.69457e-22)
(0.0479704 -0.00353038 9.76249e-24)
(0.0480804 -0.00320763 1.65988e-21)
(0.0481806 -0.00287615 0)
(0.0482707 -0.00253567 1.08432e-21)
(0.0483504 -0.0021858 -2.14908e-23)
(0.0484193 -0.00182613 -1.10019e-21)
(0.0484771 -0.00145629 0)
(0.0485233 -0.00107581 -1.10066e-21)
(0.0485577 -0.000684072 1.08499e-21)
(0.0485798 -0.000280342 2.10861e-21)
(0.0485892 0.000136381 0)
(0.0485849 0.000567412 -4.1686e-21)
(0.0485657 0.0010142 4.14415e-21)
(0.0485286 0.00147856 -4.06062e-21)
(0.0484693 0.00196279 -5.80744e-23)
(0.0483817 0.00246934 0)
(0.048258 0.00300089 -1.87468e-21)
(0.0480897 0.0035601 1.7616e-21)
(0.0478673 0.00414967 1.87526e-21)
(0.0475823 0.00477275 3.3245e-21)
(0.0472266 0.00543122 -5.13682e-21)
(0.0467912 0.00612852 3.29315e-21)
(0.0462712 0.00686762 -1.628e-21)
(0.0456507 0.00764594 1.76548e-21)
(0.044952 0.00850021 4.65991e-21)
(0.0378127 -0.0100824 -1.67478e-22)
(0.0380775 -0.0101185 1.34451e-22)
(0.0383444 -0.0101475 2.25834e-23)
(0.0386144 -0.0101696 0)
(0.0388867 -0.0101838 6.83977e-23)
(0.0391609 -0.0101899 0)
(0.0394368 -0.0101877 -3.22776e-22)
(0.0397142 -0.0101771 -6.88706e-23)
(0.0399929 -0.010158 6.14227e-22)
(0.0402727 -0.0101304 -2.58958e-22)
(0.0405532 -0.010094 -2.68271e-22)
(0.0408344 -0.0100489 -3.28269e-22)
(0.0411158 -0.00999482 0)
(0.0413971 -0.00993183 0)
(0.041678 -0.00985986 4.00677e-22)
(0.0419583 -0.00977885 4.33611e-22)
(0.0422375 -0.00968878 -9.98113e-22)
(0.0425152 -0.00958965 9.98029e-22)
(0.0427912 -0.00948143 1.1001e-21)
(0.0430651 -0.00936414 -1.19715e-21)
(0.0433365 -0.0092378 2.42245e-21)
(0.0436051 -0.00910241 2.4361e-23)
(0.0438704 -0.00895802 -1.3717e-21)
(0.0441322 -0.00880467 -7.36309e-22)
(0.0443901 -0.0086424 -1.52436e-21)
(0.0446437 -0.0084713 1.5281e-21)
(0.0448928 -0.00829143 1.65377e-21)
(0.045137 -0.00810287 -1.65907e-21)
(0.0453761 -0.0079057 0)
(0.0456098 -0.00770003 0)
(0.0458378 -0.00748597 2.35706e-21)
(0.0460597 -0.00726361 5.29102e-23)
(0.0462755 -0.00703304 -9.92644e-22)
(0.0464847 -0.00679433 -1.05152e-21)
(0.0466873 -0.00654745 1.05745e-21)
(0.0468828 -0.0062931 0)
(0.0470711 -0.00603105 -5.35874e-22)
(0.0472521 -0.00576126 -8.44465e-22)
(0.0474254 -0.00548375 5.5413e-22)
(0.0475909 -0.00519852 -6.80474e-24)
(0.0477483 -0.00490551 -4.47449e-23)
(0.0478973 -0.00460466 2.10413e-22)
(0.0480378 -0.00429589 1.47082e-22)
(0.0481695 -0.00397909 2.90254e-22)
(0.0482921 -0.00365407 -1.43381e-21)
(0.0484054 -0.00332063 9.28115e-24)
(0.0485092 -0.00297849 0)
(0.0486031 -0.00262738 -1.18685e-21)
(0.0486871 -0.00226692 3.47854e-21)
(0.0487608 -0.00189672 -2.32973e-21)
(0.0488242 -0.00151633 -1.15396e-21)
(0.0488771 -0.00112523 -3.33377e-23)
(0.0489192 -0.000722729 -1.11357e-21)
(0.0489502 -0.000307951 -1.61446e-23)
(0.0489692 0.000120271 2.20807e-21)
(0.0489746 0.000563449 -2.23757e-21)
(0.0489635 0.00102341 -2.14572e-21)
(0.0489321 0.00150228 4.18713e-21)
(0.0488746 0.00200253 -4.82003e-23)
(0.0487844 0.00252666 1.99234e-21)
(0.0486539 0.00307731 -1.93256e-21)
(0.0484758 0.00365698 1.83144e-21)
(0.0482423 0.00426826 -3.57097e-21)
(0.047947 0.00491428 -1.80355e-21)
(0.0475833 0.00559702 3.42926e-21)
(0.047144 0.00632111 -1.89045e-21)
(0.0466263 0.00708977 -5.42021e-21)
(0.0460142 0.00790202 -1.66221e-21)
(0.0453298 0.00879575 0)
(0.0377238 -0.0105561 0)
(0.0380039 -0.0105926 -5.94805e-24)
(0.038286 -0.0106217 -1.51684e-23)
(0.0385712 -0.0106433 0)
(0.0388587 -0.0106566 0)
(0.0391479 -0.0106612 1.40197e-22)
(0.0394386 -0.0106571 -5.432e-22)
(0.0397307 -0.010644 8.03364e-22)
(0.0400239 -0.0106219 -4.12055e-22)
(0.0403179 -0.0105906 2.59745e-22)
(0.0406124 -0.0105502 0)
(0.0409072 -0.0105004 3.29208e-22)
(0.0412019 -0.0104412 -3.94602e-22)
(0.0414962 -0.0103726 0)
(0.0417898 -0.0102945 0)
(0.0420823 -0.0102069 5.00113e-22)
(0.0423735 -0.0101098 6.99557e-23)
(0.0426629 -0.0100032 -1.07145e-21)
(0.0429502 -0.00988704 -1.17062e-21)
(0.0432351 -0.00976143 1.21013e-21)
(0.0435171 -0.00962637 6.36793e-22)
(0.0437959 -0.00948192 2.7981e-21)
(0.0440711 -0.00932813 3.54745e-23)
(0.0443425 -0.00916508 -8.12314e-22)
(0.0446095 -0.00899285 1.55233e-21)
(0.044872 -0.00881153 -8.32193e-22)
(0.0451296 -0.00862122 1.68748e-21)
(0.0453819 -0.00842204 0)
(0.0456287 -0.00821409 0)
(0.0458697 -0.00799751 0)
(0.0461046 -0.0077724 -4.83505e-22)
(0.0463331 -0.0075389 -1.0122e-21)
(0.046555 -0.00729713 1.04432e-21)
(0.04677 -0.00704715 1.10449e-21)
(0.046978 -0.00678908 -1.108e-21)
(0.0471786 -0.00652354 0)
(0.0473718 -0.00625026 5.79914e-22)
(0.0475572 -0.00596927 -2.90824e-22)
(0.0477348 -0.00568058 0)
(0.0479042 -0.00538421 2.94974e-22)
(0.0480654 -0.00508014 -5.55026e-23)
(0.0482181 -0.00476832 3.69826e-23)
(0.0483621 -0.00444866 -1.46409e-22)
(0.0484973 -0.00412106 0)
(0.0486236 -0.00378536 -6.06944e-22)
(0.0487407 -0.00344134 5.99801e-22)
(0.0488485 -0.00308876 0)
(0.0489471 -0.00272733 -3.40883e-23)
(0.0490362 -0.00235669 2.07204e-23)
(0.049116 -0.00197645 1.17229e-21)
(0.0491863 -0.00158609 0)
(0.0492471 -0.00118499 -5.64855e-23)
(0.0492979 -0.00077231 -1.14597e-21)
(0.0493376 -0.000346958 -3.515e-21)
(0.0493646 9.24933e-05 -6.61035e-23)
(0.0493761 0.000547804 2.18992e-21)
(0.0493681 0.00102103 0)
(0.0493357 0.00151438 0)
(0.049273 0.00203027 2.15436e-21)
(0.0491737 0.00257097 0)
(0.0490315 0.00313897 0)
(0.0488406 0.00373653 -5.25675e-23)
(0.0485951 0.00436636 -1.91776e-21)
(0.0482909 0.00503156 -3.8592e-21)
(0.0479224 0.00573452 3.83076e-21)
(0.0474848 0.00648137 -2.53114e-22)
(0.0469759 0.0072748 1.77695e-21)
(0.0463804 0.00811656 1.97087e-21)
(0.0457197 0.00904471 0)
(0.0376284 -0.0110571 0)
(0.0379244 -0.0110939 5.95879e-24)
(0.0382224 -0.0111228 1.44569e-22)
(0.0385236 -0.0111437 -2.78928e-23)
(0.0388271 -0.0111558 0)
(0.0391323 -0.0111586 -4.80008e-22)
(0.0394389 -0.0111521 9.29923e-22)
(0.0397467 -0.0111361 7.57046e-23)
(0.0400553 -0.0111106 -1.30118e-21)
(0.0403646 -0.0110754 2.46773e-22)
(0.0406741 -0.0110304 -3.53274e-22)
(0.0409836 -0.0109756 -3.91055e-22)
(0.0412926 -0.0109108 1.25407e-21)
(0.0416009 -0.0108361 -1.78999e-21)
(0.0419082 -0.0107514 9.31132e-22)
(0.042214 -0.0106567 -5.74952e-22)
(0.0425181 -0.0105519 2.22654e-21)
(0.04282 -0.0104372 -5.34884e-22)
(0.0431193 -0.0103126 6.84124e-22)
(0.0434158 -0.010178 -6.16558e-22)
(0.043709 -0.0100336 6.99438e-23)
(0.0439986 -0.00987944 -4.41258e-21)
(0.0442842 -0.0097156 -8.15922e-22)
(0.0445654 -0.00954219 -6.71854e-23)
(0.044842 -0.00935932 2.51229e-21)
(0.0451135 -0.00916711 -8.50196e-22)
(0.0453796 -0.0089657 1.84911e-21)
(0.0456401 -0.00875522 -2.82487e-21)
(0.0458946 -0.00853583 0)
(0.0461428 -0.00830767 -1.02572e-21)
(0.0463845 -0.0080709 1.02959e-21)
(0.0466194 -0.00782568 2.86567e-23)
(0.0468473 -0.00757213 -5.71078e-22)
(0.0470679 -0.00731036 -5.88029e-22)
(0.0472812 -0.00704065 1.78644e-21)
(0.0474867 -0.00676342 -1.17283e-21)
(0.0476844 -0.00647852 9.12856e-22)
(0.0478742 -0.00618596 -1.20996e-21)
(0.0480558 -0.00588579 6.04453e-22)
(0.0482291 -0.00557806 -1.5008e-22)
(0.048394 -0.00526276 0)
(0.0485503 -0.00493986 1.56634e-22)
(0.048698 -0.00460929 -1.54872e-22)
(0.0488369 -0.00427095 -3.15248e-22)
(0.0489672 -0.00392471 9.42961e-22)
(0.0490886 -0.00357037 -6.35066e-22)
(0.0492013 -0.00320769 -6.23565e-22)
(0.0493054 -0.0028364 0)
(0.0494008 -0.00245611 -2.5333e-21)
(0.0494876 -0.00206637 2.48322e-21)
(0.0495655 -0.00166655 -1.20261e-21)
(0.049634 -0.00125584 1.18227e-21)
(0.0496919 -0.00083318 1.2264e-21)
(0.0497374 -0.000397218 2.3473e-21)
(0.0497676 5.3685e-05 2.28516e-21)
(0.0497788 0.000521396 0)
(0.0497664 0.00100794 -2.30564e-21)
(0.0497254 0.00151537 0)
(0.0496506 0.0020458 6.05374e-23)
(0.0495371 0.00260123 -2.0494e-21)
(0.0493799 0.00318396 2.06124e-21)
(0.0491754 0.00379606 1.98073e-21)
(0.0489192 0.0044406 -2.07596e-21)
(0.0486092 0.00512054 -6.60704e-23)
(0.0482404 0.00583917 5.29516e-23)
(0.0478112 0.00660389 6.0877e-21)
(0.0473184 0.00741622 2.17238e-21)
(0.0467507 0.00828332 2.22041e-21)
(0.0461298 0.00924113 -2.24026e-21)
(0.0375278 -0.0115882 0)
(0.0378403 -0.0116249 0)
(0.0381549 -0.0116532 1.52333e-22)
(0.0384727 -0.0116731 -2.37777e-22)
(0.0387929 -0.0116836 -1.47401e-22)
(0.0391148 -0.0116843 0)
(0.039438 -0.011675 0)
(0.0397624 -0.0116557 2.6749e-22)
(0.0400875 -0.0116262 -6.21948e-22)
(0.0404129 -0.0115865 -1.10647e-22)
(0.0407384 -0.0115365 1.82778e-21)
(0.0410635 -0.0114761 -3.84407e-22)
(0.0413879 -0.0114052 4.64939e-22)
(0.0417112 -0.0113237 -9.28734e-22)
(0.0420331 -0.0112318 5.42905e-22)
(0.0423531 -0.0111293 0)
(0.0426709 -0.0110163 0)
(0.0429862 -0.0108929 3.46989e-23)
(0.0432984 -0.010759 -2.00173e-21)
(0.0436072 -0.0106148 6.86327e-22)
(0.0439123 -0.0104604 -7.70657e-22)
(0.0442133 -0.0102958 7.58069e-22)
(0.0445097 -0.0101212 8.2575e-22)
(0.0448013 -0.00993665 -7.9116e-22)
(0.0450877 -0.0097424 -8.63926e-22)
(0.0453685 -0.00953856 0)
(0.0456435 -0.00932531 0)
(0.0459123 -0.00910282 1.47991e-21)
(0.0461745 -0.00887128 0)
(0.0464301 -0.00863087 1.07904e-21)
(0.0466786 -0.00838178 -1.08274e-21)
(0.0469198 -0.0081242 -5.51583e-22)
(0.0471536 -0.0078583 5.68277e-22)
(0.0473798 -0.00758418 1.20108e-21)
(0.0475981 -0.00730234 -5.96169e-22)
(0.0478084 -0.00701298 -6.24683e-22)
(0.0480106 -0.00671603 6.34028e-22)
(0.0482045 -0.00641156 0)
(0.0483901 -0.00609966 0)
(0.0485672 -0.00578037 1.6398e-22)
(0.0487358 -0.00545372 0)
(0.0488959 -0.00511971 0)
(0.0490476 -0.00477829 -4.9266e-22)
(0.0491907 -0.00442939 6.55525e-22)
(0.0493255 -0.00407288 -3.33195e-22)
(0.0494521 -0.00370859 6.35497e-22)
(0.0495704 -0.00333626 0)
(0.0496807 -0.00295556 1.96342e-21)
(0.0497827 -0.00256604 -2.19531e-23)
(0.0498761 -0.00216708 0)
(0.0499601 -0.00175786 -2.53357e-21)
(0.0500334 -0.00133736 -2.45884e-23)
(0.0500939 -0.000904297 -2.43388e-21)
(0.0501388 -0.000457184 -1.24383e-21)
(0.0501646 5.62842e-06 -2.39451e-21)
(0.0501672 0.000485868 2.33005e-21)
(0.0501425 0.000985291 2.23863e-21)
(0.0500862 0.00150561 0)
(0.0499943 0.00204862 -2.21566e-21)
(0.0498635 0.00261605 4.66086e-23)
(0.0496907 0.00321011 0)
(0.0494737 0.00383279 0)
(0.0492097 0.00448763 2.06834e-21)
(0.048898 0.00517734 0)
(0.0485348 0.00590671 0)
(0.0481211 0.00668323 -2.2188e-21)
(0.0476528 0.00750778 -2.15567e-21)
(0.0471264 0.00839326 -2.56584e-21)
(0.0465614 0.00936614 0)
(0.0374229 -0.0121518 0)
(0.0377527 -0.0121882 0)
(0.0380847 -0.0122156 0)
(0.03842 -0.0122341 -1.30692e-22)
(0.0387576 -0.0122425 -2.12175e-22)
(0.0390969 -0.0122406 -8.28396e-23)
(0.0394375 -0.012228 4.39779e-22)
(0.0397792 -0.0122049 -2.66714e-22)
(0.0401215 -0.012171 3.39568e-22)
(0.0404639 -0.0121262 7.26896e-22)
(0.0408062 -0.0120705 0)
(0.0411479 -0.0120039 0)
(0.0414885 -0.0119261 -3.7815e-23)
(0.0418277 -0.0118373 1.54812e-21)
(0.042165 -0.0117374 -2.28857e-21)
(0.0425001 -0.0116265 -7.9183e-23)
(0.0428325 -0.0115045 1.23977e-21)
(0.0431619 -0.0113716 6.55691e-22)
(0.0434877 -0.0112277 -4.93048e-23)
(0.0438096 -0.0110731 0)
(0.0441273 -0.0109078 1.58752e-21)
(0.0444403 -0.0107319 0)
(0.0447481 -0.0105457 1.73657e-21)
(0.0450506 -0.0103493 -2.71958e-21)
(0.0453472 -0.0101428 2.81475e-21)
(0.0456378 -0.00992657 1.00677e-21)
(0.0459218 -0.00970068 -1.55021e-21)
(0.0461991 -0.00946539 1.58518e-21)
(0.0464693 -0.00922093 -1.06637e-21)
(0.0467323 -0.00896754 0)
(0.0469877 -0.00870543 -1.16738e-21)
(0.0472353 -0.00843483 -6.40102e-22)
(0.047475 -0.00815596 1.2057e-21)
(0.0477067 -0.00786895 -1.25578e-21)
(0.04793 -0.00757447 6.43052e-22)
(0.048145 -0.00727252 -6.36576e-22)
(0.0483516 -0.00696315 -3.1686e-22)
(0.0485498 -0.00664647 3.36037e-22)
(0.0487394 -0.0063226 1.63515e-22)
(0.0489205 -0.00599163 -4.91056e-22)
(0.0490932 -0.00565362 -4.27361e-23)
(0.0492575 -0.00530859 0)
(0.0494136 -0.00495651 1.63866e-22)
(0.0495615 -0.00459731 -3.28107e-22)
(0.0497015 -0.00423086 3.28007e-22)
(0.0498335 -0.00385694 0)
(0.0499575 -0.00347522 0)
(0.0500733 -0.00308523 6.86222e-22)
(0.0501801 -0.00268635 -1.31067e-21)
(0.0502771 -0.00227778 -2.6489e-21)
(0.0503625 -0.00185851 5.16342e-21)
(0.0504343 -0.00142738 -1.30156e-21)
(0.0504896 -0.000983065 1.24778e-21)
(0.0505254 -0.000524189 1.20462e-21)
(0.0505381 -4.93357e-05 -2.43249e-21)
(0.0505244 0.000442891 2.36933e-21)
(0.0504808 0.000953872 0)
(0.0504046 0.00148498 -2.3596e-21)
(0.0502933 0.00203772 4.83979e-23)
(0.0501448 0.00261369 2.23912e-21)
(0.0499578 0.00321511 0)
(0.049731 0.00384397 0)
(0.0494635 0.00450435 0)
(0.0491552 0.00519856 4.6596e-21)
(0.0488041 0.00593344 2.46291e-21)
(0.048413 0.00671449 2.41375e-21)
(0.0479803 0.00754459 -5.09918e-21)
(0.0475123 0.0084396 -1.80236e-22)
(0.0470465 0.00942473 3.06601e-21)
(0.0373142 -0.0127507 0)
(0.0376624 -0.0127865 -1.56937e-22)
(0.0380127 -0.0128127 2.12924e-22)
(0.0383664 -0.0128293 -2.76155e-22)
(0.0387224 -0.0128353 5.27294e-22)
(0.03908 -0.0128302 2.44184e-22)
(0.0394389 -0.012814 2.8767e-22)
(0.0397987 -0.0127864 0)
(0.040159 -0.0127474 -7.11769e-22)
(0.0405193 -0.012697 -7.97468e-22)
(0.0408792 -0.012635 8.3413e-22)
(0.0412382 -0.0125613 -5.02342e-22)
(0.0415958 -0.012476 5.83599e-22)
(0.0419517 -0.012379 -4.57682e-22)
(0.0423053 -0.0122704 -2.45919e-21)
(0.0426562 -0.0121501 -8.19223e-23)
(0.043004 -0.0120183 -8.10577e-23)
(0.0433483 -0.011875 1.40681e-21)
(0.0436884 -0.0117203 7.37981e-22)
(0.0440242 -0.0115543 1.64294e-21)
(0.044355 -0.0113772 -1.5869e-21)
(0.0446806 -0.0111892 0)
(0.0450004 -0.0109905 5.85988e-23)
(0.0453142 -0.0107812 0)
(0.0456216 -0.0105617 -9.62951e-22)
(0.0459222 -0.010332 -9.99137e-22)
(0.0462156 -0.0100926 5.1747e-22)
(0.0465017 -0.0098437 0)
(0.0467802 -0.0095855 5.85281e-22)
(0.0470507 -0.00931833 1.18723e-21)
(0.0473131 -0.00904246 -1.19031e-21)
(0.0475672 -0.00875816 6.04062e-22)
(0.0478129 -0.00846569 -1.28885e-21)
(0.0480502 -0.00816528 2.58735e-21)
(0.0482787 -0.00785763 -6.53522e-22)
(0.0484986 -0.00754266 0)
(0.0487098 -0.00722053 -3.45521e-22)
(0.0489124 -0.00689142 1.71017e-23)
(0.0491064 -0.00655546 5.10615e-22)
(0.0492919 -0.00621279 -4.26508e-22)
(0.0494691 -0.00586347 8.32678e-23)
(0.049638 -0.00550754 -2.6211e-22)
(0.0497989 -0.00514495 1.71377e-22)
(0.0499517 -0.00477559 0)
(0.0500964 -0.00439922 0)
(0.0502327 -0.00401552 0)
(0.0503602 -0.00362401 6.97886e-22)
(0.0504778 -0.00322404 6.92402e-22)
(0.0505845 -0.00281484 0)
(0.0506783 -0.00239548 1.31931e-21)
(0.0507571 -0.00196494 1.3605e-21)
(0.0508185 -0.00152212 1.31864e-21)
(0.0508597 -0.00106594 0)
(0.0508778 -0.000595292 0)
(0.0508702 -0.000109142 -2.46858e-21)
(0.0508344 0.000393535 2.41091e-21)
(0.0507685 0.000913783 0)
(0.0506708 0.00145273 2.30926e-21)
(0.0505402 0.00201172 -2.29182e-21)
(0.0503759 0.0025923 -2.40008e-21)
(0.0501776 0.00319674 2.35969e-21)
(0.0499454 0.00382716 -2.35772e-21)
(0.0496794 0.00448807 0)
(0.0493803 0.00518144 -2.41394e-21)
(0.049049 0.00591604 9.03746e-23)
(0.0486889 0.00669384 -5.49661e-21)
(0.0483092 0.00752447 -6.00851e-21)
(0.0479244 0.00841717 6.27449e-21)
(0.0476117 0.00940987 -3.31225e-21)
(0.0372022 -0.0133878 -2.41067e-23)
(0.0375698 -0.0134227 0)
(0.0379396 -0.0134474 -5.5962e-23)
(0.0383129 -0.0134619 4.60752e-22)
(0.0386884 -0.013465 -9.37132e-22)
(0.0390654 -0.0134563 2.28604e-22)
(0.0394436 -0.0134357 -2.85041e-22)
(0.0398225 -0.0134031 7.35953e-22)
(0.0402018 -0.0133584 -3.63475e-22)
(0.0405808 -0.0133016 -4.13309e-22)
(0.0409592 -0.0132325 -4.99662e-22)
(0.0413364 -0.0131511 1.57965e-21)
(0.041712 -0.0130574 -4.92796e-22)
(0.0420853 -0.0129514 1.8818e-21)
(0.0424561 -0.0128331 7.07685e-22)
(0.0428236 -0.0127026 8.44621e-23)
(0.0431876 -0.0125599 -1.4164e-21)
(0.0435474 -0.0124052 0)
(0.0439026 -0.0122387 0)
(0.0442528 -0.0120603 -8.81732e-22)
(0.0445975 -0.0118705 -8.61813e-22)
(0.0449362 -0.0116693 -1.89688e-21)
(0.0452686 -0.011457 9.59112e-22)
(0.0455943 -0.0112339 2.04894e-21)
(0.0459128 -0.0110002 -2.05044e-21)
(0.0462238 -0.0107563 5.57846e-22)
(0.0465271 -0.0105024 5.76408e-22)
(0.0468224 -0.0102389 0)
(0.0471093 -0.0099661 -5.78147e-22)
(0.0473877 -0.00968433 -1.24e-21)
(0.0476574 -0.00939393 -3.146e-23)
(0.0479183 -0.00909523 1.27684e-21)
(0.0481703 -0.00878852 -6.8172e-22)
(0.0484133 -0.00847425 0)
(0.0486474 -0.0081529 3.50897e-22)
(0.0488725 -0.00782455 -3.53941e-22)
(0.0490886 -0.00748939 3.38669e-22)
(0.049296 -0.00714764 -6.99537e-22)
(0.0494948 -0.00679947 0)
(0.0496849 -0.00644499 -9.03411e-23)
(0.0498665 -0.00608425 8.8327e-23)
(0.0500397 -0.00571723 -1.36807e-22)
(0.0502042 -0.0053438 5.3012e-22)
(0.0503599 -0.00496371 -1.05706e-21)
(0.0505063 -0.00457662 6.95608e-22)
(0.0506426 -0.00418202 6.99659e-22)
(0.0507676 -0.00377933 -6.54009e-22)
(0.0508799 -0.00336781 1.40564e-21)
(0.0509779 -0.00294669 -1.34433e-21)
(0.0510595 -0.00251513 -3.33015e-21)
(0.0511224 -0.00207229 2.25741e-23)
(0.0511646 -0.00161737 -1.27037e-21)
(0.0511838 -0.00114961 0)
(0.0511782 -0.000668277 0)
(0.0511459 -0.000172667 -2.50959e-21)
(0.0510858 0.000337953 3.67951e-21)
(0.0509969 0.000864405 -2.44229e-21)
(0.0508787 0.00140768 0)
(0.0507312 0.00196904 2.50235e-21)
(0.0505545 0.00255008 4.8666e-21)
(0.0503494 0.00315308 -2.42445e-21)
(0.0501167 0.00378035 -2.92713e-23)
(0.0498581 0.0044366 2.59704e-21)
(0.0495752 0.00512377 -5.08235e-23)
(0.0492734 0.00585125 -5.75956e-21)
(0.0489599 0.00661923 6.02314e-21)
(0.0486634 0.00744447 3.27333e-21)
(0.0484073 0.00832539 0)
(0.0483425 0.00931835 0)
(0.037087 -0.0140666 2.37503e-23)
(0.0374756 -0.0141004 3.20831e-22)
(0.0378662 -0.0141232 -2.58705e-22)
(0.0382603 -0.0141351 0)
(0.0386566 -0.0141348 -1.13876e-22)
(0.0390543 -0.014122 -6.26318e-22)
(0.039453 -0.0140965 4.46139e-22)
(0.0398523 -0.0140582 -1.00957e-21)
(0.0402517 -0.0140071 8.05915e-22)
(0.0406506 -0.0139431 0)
(0.0410486 -0.0138661 2.22479e-22)
(0.041445 -0.0137762 0)
(0.0418394 -0.0136732 6.72357e-22)
(0.0422312 -0.0135572 -1.87195e-21)
(0.04262 -0.0134283 0)
(0.0430051 -0.0132865 0)
(0.043386 -0.013132 0)
(0.0437622 -0.0129649 -1.25153e-21)
(0.0441333 -0.0127854 1.67486e-21)
(0.0444987 -0.0125937 8.69457e-22)
(0.0448579 -0.0123899 0)
(0.0452105 -0.0121744 0)
(0.045556 -0.0119475 0)
(0.0458941 -0.0117095 -2.69684e-21)
(0.0462244 -0.0114606 3.26407e-21)
(0.0465465 -0.0112013 -1.66251e-21)
(0.0468601 -0.0109319 -1.17008e-21)
(0.0471649 -0.0106529 1.22091e-21)
(0.0474608 -0.0103646 -1.22222e-21)
(0.0477476 -0.0100674 6.56162e-22)