/*--------------------------------*- C++ -*----------------------------------*\
| =========                 |                                                 |
| \\      /  F ield         | OpenFOAM: The Open Source CFD Toolbox           |
|  \\    /   O peration     | Version:  2312                                  |
|   \\  /    A nd           | Website:  www.openfoam.com                      |
|    \\/     M anipulation  |                                                 |
\*---------------------------------------------------------------------------*/
FoamFile
{
    version     2.0;
    format      ascii;
    arch        "LSB;label=32;scalar=64";
    class       volScalarField;
    location    "700";
    object      k;
}
// * * * * * * * * * * * * * * * * * * * * * * * * * * * * * * * * * * * * * //

dimensions      [0 2 -2 0 0 0 0];

internalField   nonuniform List<scalar> 
76025
(
4.94838e-06
4.94639e-06
4.94233e-06
4.93763e-06
4.93574e-06
4.93748e-06
4.93707e-06
4.93597e-06
4.93246e-06
4.93147e-06
4.9298e-06
4.93066e-06
4.93023e-06
4.92741e-06
4.92783e-06
4.92769e-06
4.92827e-06
4.92833e-06
4.9285e-06
4.92709e-06
4.93041e-06
4.93191e-06
4.92968e-06
4.92904e-06
4.93222e-06
4.93491e-06
4.94382e-06
4.95029e-06
4.96172e-06
4.9721e-06
4.98538e-06
4.99744e-06
5.01628e-06
5.03346e-06
5.05463e-06
5.07564e-06
5.10015e-06
5.129e-06
5.15833e-06
5.18989e-06
5.22287e-06
5.26078e-06
5.30168e-06
5.3443e-06
5.38962e-06
5.43903e-06
5.49193e-06
5.55015e-06
5.6155e-06
5.68623e-06
5.7693e-06
5.86281e-06
5.97335e-06
6.09586e-06
6.2567e-06
6.43343e-06
6.65942e-06
6.94743e-06
7.29808e-06
7.78772e-06
8.3852e-06
9.29174e-06
1.0565e-05
1.22781e-05
1.45535e-05
1.72278e-05
2.0468e-05
2.42259e-05
2.87737e-05
5.03407e-06
5.03471e-06
5.03542e-06
5.03527e-06
5.03506e-06
5.03569e-06
5.03718e-06
5.04106e-06
5.04157e-06
5.04014e-06
5.04224e-06
5.0429e-06
5.04219e-06
5.04133e-06
5.04533e-06
5.0466e-06
5.04892e-06
5.05032e-06
5.05245e-06
5.04894e-06
5.04743e-06
5.04723e-06
5.05173e-06
5.05706e-06
5.06206e-06
5.06586e-06
5.07206e-06
5.07937e-06
5.08899e-06
5.10066e-06
5.11449e-06
5.12899e-06
5.14644e-06
5.16515e-06
5.18624e-06
5.20939e-06
5.23452e-06
5.26221e-06
5.29179e-06
5.32389e-06
5.35922e-06
5.39718e-06
5.43863e-06
5.48344e-06
5.53308e-06
5.58771e-06
5.64803e-06
5.71574e-06
5.79207e-06
5.87942e-06
5.97839e-06
6.09365e-06
6.22618e-06
6.38433e-06
6.57115e-06
6.79928e-06
7.08346e-06
7.43803e-06
7.91163e-06
8.53398e-06
9.39901e-06
1.05743e-05
1.21255e-05
1.41099e-05
1.65637e-05
1.94701e-05
2.29781e-05
2.67443e-05
3.1484e-05
5.13592e-06
5.13707e-06
5.13886e-06
5.14082e-06
5.14252e-06
5.14425e-06
5.14579e-06
5.14744e-06
5.14893e-06
5.15044e-06
5.15347e-06
5.15614e-06
5.15925e-06
5.16236e-06
5.1652e-06
5.16678e-06
5.16919e-06
5.17154e-06
5.17456e-06
5.17821e-06
5.18501e-06
5.19797e-06
5.20364e-06
5.20137e-06
5.20258e-06
5.20601e-06
5.21182e-06
5.21954e-06
5.22941e-06
5.24127e-06
5.25538e-06
5.27119e-06
5.28914e-06
5.30912e-06
5.33134e-06
5.35584e-06
5.38282e-06
5.4124e-06
5.44469e-06
5.48e-06
5.51879e-06
5.56143e-06
5.60829e-06
5.65992e-06
5.71717e-06
5.78084e-06
5.85212e-06
5.93225e-06
6.02324e-06
6.12674e-06
6.24563e-06
6.38301e-06
6.54393e-06
6.73452e-06
6.96413e-06
7.24756e-06
7.60219e-06
8.06313e-06
8.66722e-06
9.47933e-06
1.05614e-05
1.19845e-05
1.38007e-05
1.6044e-05
1.87464e-05
2.18639e-05
2.5497e-05
2.93617e-05
3.40365e-05
5.26027e-06
5.26062e-06
5.26132e-06
5.26339e-06
5.2659e-06
5.26935e-06
5.27383e-06
5.28009e-06
5.28856e-06
5.28785e-06
5.28803e-06
5.28841e-06
5.29107e-06
5.29479e-06
5.29996e-06
5.31064e-06
5.31554e-06
5.31846e-06
5.32104e-06
5.32432e-06
5.32903e-06
5.33501e-06
5.34075e-06
5.3459e-06
5.35162e-06
5.35855e-06
5.36695e-06
5.37693e-06
5.38874e-06
5.40242e-06
5.41812e-06
5.43584e-06
5.45572e-06
5.47791e-06
5.50254e-06
5.52975e-06
5.55981e-06
5.59294e-06
5.6294e-06
5.66956e-06
5.71389e-06
5.76292e-06
5.81721e-06
5.87738e-06
5.94433e-06
6.01922e-06
6.10328e-06
6.19822e-06
6.30605e-06
6.42941e-06
6.57165e-06
6.73742e-06
6.93327e-06
7.16819e-06
7.45601e-06
7.81544e-06
8.27529e-06
8.87317e-06
9.6606e-06
1.06971e-05
1.20394e-05
1.37408e-05
1.58251e-05
1.83142e-05
2.1211e-05
2.44782e-05
2.82012e-05
3.20942e-05
3.66958e-05
5.41566e-06
5.41432e-06
5.41791e-06
5.41909e-06
5.41745e-06
5.41752e-06
5.42029e-06
5.42512e-06
5.43111e-06
5.43603e-06
5.43988e-06
5.45341e-06
5.4544e-06
5.45631e-06
5.45962e-06
5.46578e-06
5.47189e-06
5.47744e-06
5.48262e-06
5.48798e-06
5.49391e-06
5.50059e-06
5.50782e-06
5.51576e-06
5.52462e-06
5.53468e-06
5.54604e-06
5.55889e-06
5.57345e-06
5.58987e-06
5.60832e-06
5.62893e-06
5.65188e-06
5.67738e-06
5.70561e-06
5.7368e-06
5.77128e-06
5.80936e-06
5.85142e-06
5.89791e-06
5.94938e-06
6.00644e-06
6.06986e-06
6.14036e-06
6.21904e-06
6.30723e-06
6.4066e-06
6.51921e-06
6.64776e-06
6.79581e-06
6.9681e-06
7.1713e-06
7.41467e-06
7.71154e-06
8.08055e-06
8.5481e-06
9.14916e-06
9.92865e-06
1.09373e-05
1.22267e-05
1.38367e-05
1.58001e-05
1.8122e-05
2.08168e-05
2.38692e-05
2.72525e-05
3.10172e-05
3.48931e-05
3.93493e-05
5.61025e-06
5.61059e-06
5.61129e-06
5.61278e-06
5.61018e-06
5.61477e-06
5.61368e-06
5.61359e-06
5.61656e-06
5.62201e-06
5.62693e-06
5.63281e-06
5.6372e-06
5.6414e-06
5.64602e-06
5.6517e-06
5.65814e-06
5.66499e-06
5.67222e-06
5.67979e-06
5.68797e-06
5.69695e-06
5.70679e-06
5.71757e-06
5.72953e-06
5.7427e-06
5.75723e-06
5.77333e-06
5.79121e-06
5.81104e-06
5.83306e-06
5.85743e-06
5.88442e-06
5.91427e-06
5.94721e-06
5.98356e-06
6.02371e-06
6.06807e-06
6.11711e-06
6.17139e-06
6.23157e-06
6.29839e-06
6.37284e-06
6.45582e-06
6.54873e-06
6.65329e-06
6.7717e-06
6.90682e-06
7.06241e-06
7.24354e-06
7.45716e-06
7.71284e-06
8.02396e-06
8.40887e-06
8.89252e-06
9.5072e-06
1.02926e-05
1.12927e-05
1.25508e-05
1.41033e-05
1.59727e-05
1.81757e-05
2.07038e-05
2.35681e-05
2.67343e-05
3.01889e-05
3.39387e-05
3.7736e-05
4.19484e-05
5.83613e-06
5.83694e-06
5.83817e-06
5.84024e-06
5.83967e-06
5.84712e-06
5.84543e-06
5.84491e-06
5.8467e-06
5.85257e-06
5.85859e-06
5.87393e-06
5.8794e-06
5.87542e-06
5.87508e-06
5.87837e-06
5.88418e-06
5.89166e-06
5.90035e-06
5.90986e-06
5.92034e-06
5.93192e-06
5.9446e-06
5.95851e-06
5.97372e-06
5.99028e-06
6.00836e-06
6.02817e-06
6.04992e-06
6.07383e-06
6.10014e-06
6.1291e-06
6.16101e-06
6.19617e-06
6.23486e-06
6.2775e-06
6.32457e-06
6.37656e-06
6.43409e-06
6.49783e-06
6.56862e-06
6.64742e-06
6.7355e-06
6.83415e-06
6.94519e-06
7.07101e-06
7.21472e-06
7.38043e-06
7.57362e-06
7.80166e-06
8.07462e-06
8.40607e-06
8.81423e-06
9.32284e-06
9.96175e-06
1.07661e-05
1.17738e-05
1.30211e-05
1.45382e-05
1.63454e-05
1.84512e-05
2.08604e-05
2.35559e-05
2.65468e-05
2.97799e-05
3.32576e-05
3.69234e-05
4.05763e-05
4.42971e-05
6.11005e-06
6.10767e-06
6.10628e-06
6.10719e-06
6.11169e-06
6.12223e-06
6.11985e-06
6.11876e-06
6.11967e-06
6.12505e-06
6.13115e-06
6.14579e-06
6.15488e-06
6.17327e-06
6.17051e-06
6.16809e-06
6.16902e-06
6.1735e-06
6.18087e-06
6.19058e-06
6.2023e-06
6.21583e-06
6.23105e-06
6.24795e-06
6.26639e-06
6.28648e-06
6.30839e-06
6.3323e-06
6.35843e-06
6.38702e-06
6.41835e-06
6.4527e-06
6.49046e-06
6.53197e-06
6.57759e-06
6.62787e-06
6.68337e-06
6.74476e-06
6.8128e-06
6.8884e-06
6.97266e-06
7.06689e-06
7.17278e-06
7.29231e-06
7.428e-06
7.58332e-06
7.76284e-06
7.97256e-06
8.22045e-06
8.51709e-06
8.87642e-06
9.31645e-06
9.85988e-06
1.0534e-05
1.13699e-05
1.23997e-05
1.36534e-05
1.51554e-05
1.69219e-05
1.89601e-05
2.12691e-05
2.38448e-05
2.66658e-05
2.97369e-05
3.29868e-05
3.64287e-05
3.99275e-05
4.33144e-05
4.62461e-05
6.43784e-06
6.43507e-06
6.43024e-06
6.43575e-06
6.4391e-06
6.45573e-06
6.46074e-06
6.45616e-06
6.45392e-06
6.45538e-06
6.46064e-06
6.46806e-06
6.48211e-06
6.49159e-06
6.52123e-06
6.52739e-06
6.52301e-06
6.52254e-06
6.52649e-06
6.53441e-06
6.54602e-06
6.56066e-06
6.57796e-06
6.59745e-06
6.61906e-06
6.64281e-06
6.6688e-06
6.6972e-06
6.72824e-06
6.7622e-06
6.79938e-06
6.84015e-06
6.88494e-06
6.9342e-06
6.9884e-06
7.04825e-06
7.11448e-06
7.18796e-06
7.26974e-06
7.36108e-06
7.4635e-06
7.57891e-06
7.7097e-06
7.85889e-06
8.03018e-06
8.2287e-06
8.46109e-06
8.73599e-06
9.06455e-06
9.46099e-06
9.94303e-06
1.05321e-05
1.1253e-05
1.21325e-05
1.31976e-05
1.44724e-05
1.5976e-05
1.77206e-05
1.97111e-05
2.19459e-05
2.44179e-05
2.71161e-05
3.00169e-05
3.31158e-05
3.63255e-05
3.96527e-05
4.28755e-05
4.57687e-05
4.75e-05
6.83425e-06
6.84056e-06
6.84821e-06
6.85248e-06
6.84742e-06
6.84628e-06
6.84842e-06
6.85137e-06
6.85557e-06
6.86019e-06
6.86706e-06
6.87432e-06
6.88592e-06
6.89965e-06
6.91168e-06
6.95229e-06
6.96735e-06
6.96335e-06
6.96321e-06
6.96729e-06
6.97605e-06
6.98926e-06
7.00628e-06
7.02679e-06
7.05053e-06
7.07737e-06
7.10731e-06
7.14044e-06
7.17694e-06
7.21712e-06
7.2613e-06
7.30993e-06
7.36355e-06
7.42269e-06
7.48808e-06
7.56059e-06
7.64126e-06
7.7313e-06
7.8322e-06
7.94578e-06
8.0743e-06
8.22058e-06
8.38814e-06
8.58149e-06
8.80616e-06
9.06944e-06
9.38065e-06
9.75143e-06
1.01961e-05
1.07317e-05
1.13782e-05
1.21574e-05
1.30921e-05
1.4204e-05
1.5512e-05
1.70304e-05
1.87678e-05
2.07269e-05
2.2905e-05
2.52945e-05
2.7884e-05
3.06561e-05
3.3586e-05
3.66499e-05
3.97473e-05
4.28524e-05
4.56278e-05
4.73999e-05
4.79365e-05
7.30679e-06
7.31351e-06
7.32063e-06
7.32872e-06
7.33961e-06
7.35928e-06
7.36504e-06
7.35905e-06
7.35874e-06
7.36304e-06
7.36876e-06
7.37595e-06
7.38582e-06
7.39992e-06
7.41499e-06
7.43411e-06
7.48505e-06
7.49216e-06
7.49968e-06
7.50558e-06
7.5133e-06
7.52491e-06
7.54101e-06
7.56172e-06
7.58693e-06
7.61653e-06
7.65045e-06
7.68876e-06
7.73163e-06
7.77937e-06
7.83237e-06
7.89122e-06
7.95657e-06
8.02916e-06
8.11003e-06
8.20041e-06
8.30178e-06
8.41593e-06
8.54505e-06
8.69188e-06
8.85977e-06
9.0529e-06
9.2764e-06
9.53673e-06
9.8416e-06
1.02008e-05
1.06262e-05
1.11317e-05
1.17335e-05
1.24493e-05
1.32979e-05
1.42977e-05
1.54658e-05
1.68161e-05
1.83588e-05
2.00994e-05
2.20385e-05
2.41726e-05
2.64933e-05
2.899e-05
3.16453e-05
3.44373e-05
3.73352e-05
4.02815e-05
4.31693e-05
4.59035e-05
4.75777e-05
4.82312e-05
4.80897e-05
7.90907e-06
7.91603e-06
7.92372e-06
7.93374e-06
7.94408e-06
7.97981e-06
7.99336e-06
7.98982e-06
7.98936e-06
7.99725e-06
8.01285e-06
8.02331e-06
8.03187e-06
8.04203e-06
8.05163e-06
8.06861e-06
8.09536e-06
8.11888e-06
8.13891e-06
8.15576e-06
8.17149e-06
8.18854e-06
8.20871e-06
8.23293e-06
8.26185e-06
8.29593e-06
8.33548e-06
8.38082e-06
8.43231e-06
8.49043e-06
8.55575e-06
8.6291e-06
8.71137e-06
8.8037e-06
8.90761e-06
9.0249e-06
9.15776e-06
9.30888e-06
9.48152e-06
9.67969e-06
9.9082e-06
1.0173e-05
1.0481e-05
1.08407e-05
1.12618e-05
1.17557e-05
1.23357e-05
1.30161e-05
1.38121e-05
1.47391e-05
1.58113e-05
1.70413e-05
1.84392e-05
2.00113e-05
2.17605e-05
2.36858e-05
2.57826e-05
2.80429e-05
3.04545e-05
3.30039e-05
3.56652e-05
3.84143e-05
4.11946e-05
4.391e-05
4.64657e-05
4.80866e-05
4.86321e-05
4.84873e-05
4.74329e-05
8.67484e-06
8.6824e-06
8.69071e-06
8.70068e-06
8.71161e-06
8.72768e-06
8.74222e-06
8.75294e-06
8.76189e-06
8.7742e-06
8.79202e-06
8.81025e-06
8.82674e-06
8.84265e-06
8.85734e-06
8.87605e-06
8.89851e-06
8.93724e-06
8.97214e-06
9.00017e-06
9.02342e-06
9.04528e-06
9.06893e-06
9.09676e-06
9.13039e-06
9.17085e-06
9.21885e-06
9.27496e-06
9.33977e-06
9.41399e-06
9.49851e-06
9.5945e-06
9.70334e-06
9.82679e-06
9.96708e-06
1.01269e-05
1.03094e-05
1.05185e-05
1.07588e-05
1.10357e-05
1.13556e-05
1.1726e-05
1.21553e-05
1.26531e-05
1.32299e-05
1.38972e-05
1.46664e-05
1.55502e-05
1.65607e-05
1.7708e-05
1.90009e-05
2.0446e-05
2.20471e-05
2.38043e-05
2.57159e-05
2.77758e-05
2.99768e-05
3.23058e-05
3.47497e-05
3.72862e-05
3.98838e-05
4.25051e-05
4.50314e-05
4.74028e-05
4.88404e-05
4.92513e-05
4.89078e-05
4.80996e-05
4.46955e-05
9.662e-06
9.67193e-06
9.68221e-06
9.69358e-06
9.70569e-06
9.71898e-06
9.73245e-06
9.74635e-06
9.75985e-06
9.77521e-06
9.7936e-06
9.81436e-06
9.83627e-06
9.85898e-06
9.88225e-06
9.90738e-06
9.93472e-06
9.96894e-06
1.00063e-05
1.00437e-05
1.00808e-05
1.01185e-05
1.01587e-05
1.02033e-05
1.02541e-05
1.03128e-05
1.03806e-05
1.04588e-05
1.05487e-05
1.06516e-05
1.07693e-05
1.09034e-05
1.10562e-05
1.12304e-05
1.14292e-05
1.16563e-05
1.19161e-05
1.22135e-05
1.25543e-05
1.2945e-05
1.3393e-05
1.39061e-05
1.44931e-05
1.51631e-05
1.59253e-05
1.67892e-05
1.77637e-05
1.88568e-05
2.00758e-05
2.14251e-05
2.29101e-05
2.45323e-05
2.62905e-05
2.81803e-05
3.01972e-05
3.2331e-05
3.45736e-05
3.69046e-05
3.93127e-05
4.17514e-05
4.42032e-05
4.65447e-05
4.86469e-05
4.98204e-05
4.99066e-05
4.96575e-05
4.83542e-05
4.55933e-05
3.81961e-05
1.09575e-05
1.09721e-05
1.09869e-05
1.10024e-05
1.10183e-05
1.10347e-05
1.10512e-05
1.10689e-05
1.10875e-05
1.11078e-05
1.11304e-05
1.11558e-05
1.11833e-05
1.12129e-05
1.12446e-05
1.12789e-05
1.13163e-05
1.1358e-05
1.14039e-05
1.14538e-05
1.15077e-05
1.15662e-05
1.16305e-05
1.1702e-05
1.17824e-05
1.18734e-05
1.19767e-05
1.20943e-05
1.22282e-05
1.23804e-05
1.25535e-05
1.27502e-05
1.29735e-05
1.32271e-05
1.35149e-05
1.38414e-05
1.42117e-05
1.46313e-05
1.51063e-05
1.56432e-05
1.62489e-05
1.69305e-05
1.76953e-05
1.85504e-05
1.95028e-05
2.05586e-05
2.17234e-05
2.30014e-05
2.43957e-05
2.59074e-05
2.75366e-05
2.928e-05
3.1133e-05
3.30895e-05
3.51434e-05
3.72816e-05
3.94923e-05
4.1748e-05
4.40318e-05
4.62614e-05
4.84425e-05
5.02333e-05
5.11084e-05
5.10522e-05
5.02812e-05
4.89958e-05
4.50993e-05
3.87344e-05
3.06074e-05
1.27075e-05
1.27304e-05
1.27536e-05
1.27778e-05
1.28025e-05
1.28278e-05
1.28539e-05
1.28814e-05
1.29102e-05
1.29407e-05
1.29735e-05
1.30093e-05
1.30483e-05
1.30909e-05
1.31376e-05
1.31887e-05
1.3245e-05
1.3307e-05
1.33755e-05
1.3451e-05
1.35344e-05
1.36268e-05
1.37295e-05
1.3844e-05
1.39721e-05
1.41158e-05
1.42771e-05
1.44584e-05
1.46621e-05
1.48911e-05
1.51482e-05
1.54367e-05
1.57602e-05
1.61225e-05
1.65278e-05
1.69807e-05
1.7486e-05
1.80489e-05
1.86746e-05
1.93688e-05
2.01367e-05
2.0984e-05
2.19157e-05
2.29366e-05
2.4051e-05
2.52622e-05
2.65728e-05
2.7984e-05
2.94961e-05
3.11068e-05
3.2814e-05
3.46102e-05
3.64906e-05
3.84391e-05
4.04527e-05
4.25168e-05
4.46065e-05
4.66942e-05
4.87173e-05
5.05997e-05
5.20515e-05
5.23963e-05
5.20356e-05
5.13086e-05
4.90033e-05
4.54224e-05
3.69708e-05
3.04823e-05
2.38021e-05
1.51702e-05
1.52095e-05
1.52494e-05
1.52906e-05
1.53327e-05
1.5376e-05
1.54209e-05
1.5468e-05
1.55177e-05
1.55706e-05
1.5627e-05
1.56878e-05
1.57536e-05
1.58249e-05
1.59027e-05
1.59876e-05
1.60805e-05
1.61823e-05
1.62939e-05
1.64165e-05
1.65511e-05
1.66992e-05
1.68625e-05
1.70425e-05
1.72412e-05
1.74607e-05
1.77032e-05
1.79709e-05
1.82666e-05
1.8593e-05
1.89529e-05
1.93495e-05
1.97862e-05
2.02666e-05
2.07944e-05
2.13737e-05
2.20085e-05
2.27031e-05
2.34615e-05
2.42881e-05
2.51867e-05
2.61611e-05
2.72146e-05
2.835e-05
2.95693e-05
3.08737e-05
3.22635e-05
3.37377e-05
3.52943e-05
3.69279e-05
3.86356e-05
4.04047e-05
4.22291e-05
4.40887e-05
4.59745e-05
4.78742e-05
4.97242e-05
5.15171e-05
5.30551e-05
5.38019e-05
5.36664e-05
5.32116e-05
5.19008e-05
4.91468e-05
4.41385e-05
3.66287e-05
2.79276e-05
2.3925e-05
1.92871e-05
1.88428e-05
1.89155e-05
1.89897e-05
1.90662e-05
1.91447e-05
1.92255e-05
1.93092e-05
1.93964e-05
1.94877e-05
1.95837e-05
1.9685e-05
1.97923e-05
1.99064e-05
2.00279e-05
2.01578e-05
2.0297e-05
2.04463e-05
2.06069e-05
2.07797e-05
2.09658e-05
2.11666e-05
2.13834e-05
2.16178e-05
2.18714e-05
2.21459e-05
2.24434e-05
2.27658e-05
2.31154e-05
2.34945e-05
2.39056e-05
2.43514e-05
2.48346e-05
2.53584e-05
2.5926e-05
2.65405e-05
2.72054e-05
2.79241e-05
2.86999e-05
2.95362e-05
3.04359e-05
3.14018e-05
3.24363e-05
3.35411e-05
3.47175e-05
3.59658e-05
3.72853e-05
3.86745e-05
4.01304e-05
4.16488e-05
4.32204e-05
4.4844e-05
4.64957e-05
4.81712e-05
4.98479e-05
5.14965e-05
5.31182e-05
5.45469e-05
5.54876e-05
5.55321e-05
5.50707e-05
5.42097e-05
5.22916e-05
4.86632e-05
4.27827e-05
3.50016e-05
2.67445e-05
2.1614e-05
1.92312e-05
1.52416e-05
2.47576e-05
2.48838e-05
2.50107e-05
2.51391e-05
2.5269e-05
2.54005e-05
2.55343e-05
2.56712e-05
2.58115e-05
2.59559e-05
2.61051e-05
2.62597e-05
2.64203e-05
2.65878e-05
2.67628e-05
2.69462e-05
2.71388e-05
2.73416e-05
2.75556e-05
2.7782e-05
2.80219e-05
2.82766e-05
2.85477e-05
2.88367e-05
2.91453e-05
2.94755e-05
2.98292e-05
3.02086e-05
3.06159e-05
3.10536e-05
3.15241e-05
3.20301e-05
3.25745e-05
3.31602e-05
3.37901e-05
3.44673e-05
3.51945e-05
3.59746e-05
3.681e-05
3.77028e-05
3.86546e-05
3.96666e-05
4.07393e-05
4.18723e-05
4.30643e-05
4.43131e-05
4.56148e-05
4.6965e-05
4.83555e-05
4.97723e-05
5.12217e-05
5.2648e-05
5.4069e-05
5.54492e-05
5.67083e-05
5.7564e-05
5.75716e-05
5.71626e-05
5.6351e-05
5.4864e-05
5.19684e-05
4.74005e-05
4.08753e-05
3.28015e-05
2.50374e-05
1.97275e-05
1.75152e-05
1.40673e-05
1.22295e-05
3.42495e-05
3.43943e-05
3.45395e-05
3.46856e-05
3.48312e-05
3.4974e-05
3.51151e-05
3.52555e-05
3.5396e-05
3.55374e-05
3.56805e-05
3.5826e-05
3.59747e-05
3.61269e-05
3.62834e-05
3.6445e-05
3.66125e-05
3.6787e-05
3.69697e-05
3.71616e-05
3.73643e-05
3.75791e-05
3.78077e-05
3.80517e-05
3.83131e-05
3.85938e-05
3.88959e-05
3.92215e-05
3.95728e-05
3.99519e-05
4.03613e-05
4.08039e-05
4.12824e-05
4.17995e-05
4.23581e-05
4.29607e-05
4.36099e-05
4.43076e-05
4.50554e-05
4.58543e-05
4.67048e-05
4.76072e-05
4.85601e-05
4.95611e-05
5.0608e-05
5.16965e-05
5.28197e-05
5.3972e-05
5.51352e-05
5.62964e-05
5.74747e-05
5.85244e-05
5.9584e-05
6.00489e-05
5.99428e-05
5.95046e-05
5.85707e-05
5.71788e-05
5.47062e-05
5.0802e-05
4.51506e-05
3.81438e-05
3.00412e-05
2.26629e-05
1.78153e-05
1.54173e-05
1.19638e-05
1.03221e-05
1.09603e-05
4.77668e-05
4.78224e-05
4.7879e-05
4.79364e-05
4.79933e-05
4.80491e-05
4.81037e-05
4.81574e-05
4.82101e-05
4.82623e-05
4.83144e-05
4.83668e-05
4.84193e-05
4.84696e-05
4.85194e-05
4.857e-05
4.86231e-05
4.868e-05
4.87423e-05
4.88114e-05
4.88888e-05
4.89763e-05
4.90755e-05
4.91883e-05
4.93165e-05
4.94623e-05
4.96276e-05
4.98142e-05
5.0022e-05
5.02543e-05
5.05146e-05
5.08061e-05
5.11314e-05
5.14933e-05
5.18946e-05
5.23378e-05
5.28246e-05
5.33555e-05
5.39305e-05
5.45496e-05
5.52121e-05
5.5918e-05
5.6662e-05
5.74398e-05
5.82526e-05
5.90884e-05
5.99375e-05
6.07909e-05
6.16074e-05
6.24162e-05
6.29489e-05
6.29073e-05
6.26637e-05
6.19259e-05
6.09006e-05
5.93681e-05
5.69923e-05
5.33456e-05
4.82409e-05
4.16897e-05
3.42665e-05
2.66663e-05
1.95503e-05
1.56122e-05
1.27628e-05
9.83432e-06
8.64113e-06
9.17891e-06
1.18947e-05
6.44868e-05
6.43648e-05
6.42425e-05
6.41195e-05
6.39948e-05
6.38684e-05
6.37402e-05
6.36103e-05
6.34788e-05
6.33461e-05
6.32122e-05
6.30778e-05
6.2943e-05
6.28083e-05
6.2674e-05
6.2541e-05
6.24102e-05
6.22827e-05
6.21595e-05
6.20415e-05
6.19298e-05
6.18258e-05
6.1731e-05
6.16472e-05
6.15761e-05
6.15196e-05
6.1479e-05
6.14528e-05
6.14282e-05
6.14291e-05
6.14595e-05
6.15231e-05
6.16181e-05
6.17475e-05
6.1918e-05
6.21289e-05
6.2379e-05
6.26653e-05
6.29846e-05
6.33391e-05
6.37276e-05
6.4151e-05
6.45905e-05
6.50504e-05
6.55516e-05
6.60339e-05
6.65067e-05
6.667e-05
6.65579e-05
6.61546e-05
6.54532e-05
6.44621e-05
6.32084e-05
6.13985e-05
5.8826e-05
5.50189e-05
5.01553e-05
4.38275e-05
3.66975e-05
2.92312e-05
2.23689e-05
1.58889e-05
1.26819e-05
9.71664e-06
7.78457e-06
7.1011e-06
7.62216e-06
1.01905e-05
1.79196e-05
8.3089e-05
8.27313e-05
8.2375e-05
8.20189e-05
8.16611e-05
8.1301e-05
8.09383e-05
8.0573e-05
8.0205e-05
7.98346e-05
7.94619e-05
7.90873e-05
7.87113e-05
7.83344e-05
7.79572e-05
7.75804e-05
7.72048e-05
7.68311e-05
7.64599e-05
7.60875e-05
7.57147e-05
7.53441e-05
7.49779e-05
7.46185e-05
7.42684e-05
7.39297e-05
7.36049e-05
7.3296e-05
7.30032e-05
7.27292e-05
7.24864e-05
7.22879e-05
7.2091e-05
7.19184e-05
7.18225e-05
7.17504e-05
7.16987e-05
7.16606e-05
7.1625e-05
7.16253e-05
7.16534e-05
7.17038e-05
7.17196e-05
7.16069e-05
7.13899e-05
7.09123e-05
7.01959e-05
6.92837e-05
6.82231e-05
6.69103e-05
6.52436e-05
6.29341e-05
5.98172e-05
5.57216e-05
5.05615e-05
4.42984e-05
3.74709e-05
2.99907e-05
2.32299e-05
1.69469e-05
1.18788e-05
8.85948e-06
6.79843e-06
5.75018e-06
5.70449e-06
6.23339e-06
8.6484e-06
1.56816e-05
2.3883e-05
0.000101546
0.000100953
0.00010036
9.97659e-05
9.9169e-05
9.85681e-05
9.7963e-05
9.73532e-05
9.67388e-05
9.61198e-05
9.54962e-05
9.48684e-05
9.42369e-05
9.36016e-05
9.29627e-05
9.23208e-05
9.16764e-05
9.10291e-05
9.03742e-05
8.97139e-05
8.90501e-05
8.8385e-05
8.77204e-05
8.70585e-05
8.64014e-05
8.57511e-05
8.51096e-05
8.44794e-05
8.38636e-05
8.32652e-05
8.26879e-05
8.21354e-05
8.16059e-05
8.11006e-05
8.06229e-05
8.01726e-05
7.9717e-05
7.92458e-05
7.87184e-05
7.81145e-05
7.74184e-05
7.66142e-05
7.56236e-05
7.45887e-05
7.34488e-05
7.21414e-05
7.0613e-05
6.87119e-05
6.63179e-05
6.32184e-05
5.94103e-05
5.46448e-05
4.9101e-05
4.28316e-05
3.58981e-05
2.90732e-05
2.2136e-05
1.60734e-05
1.10515e-05
7.54543e-06
5.4668e-06
4.39893e-06
4.06033e-06
4.31675e-06
5.04234e-06
7.00291e-06
1.12425e-05
1.81707e-05
2.71825e-05
0.000117522
0.000116732
0.000115939
0.000115143
0.00011434
0.00011353
0.000112712
0.000111886
0.000111052
0.000110208
0.000109357
0.000108496
0.000107628
0.000106746
0.00010585
0.00010494
0.00010402
0.00010309
0.000102152
0.000101207
0.000100255
9.92976e-05
9.83363e-05
9.73718e-05
9.64055e-05
9.54389e-05
9.44715e-05
9.35117e-05
9.25561e-05
9.16004e-05
9.06395e-05
8.96674e-05
8.86765e-05
8.76561e-05
8.65975e-05
8.54713e-05
8.4308e-05
8.31069e-05
8.18512e-05
8.05102e-05
7.90648e-05
7.74703e-05
7.57051e-05
7.36783e-05
7.12463e-05
6.83978e-05
6.49749e-05
6.09086e-05
5.62272e-05
5.08064e-05
4.49702e-05
3.85098e-05
3.22296e-05
2.54915e-05
1.92069e-05
1.34662e-05
9.14472e-06
6.24258e-06
4.34779e-06
3.20934e-06
2.64498e-06
2.64292e-06
2.93567e-06
3.96879e-06
5.00799e-06
7.3304e-06
1.20417e-05
1.94401e-05
2.84342e-05
0.00012778
0.000126853
0.000125919
0.000124981
0.000124032
0.000123065
0.00012208
0.000121078
0.000120059
0.000119025
0.000117974
0.000116909
0.000115827
0.000114731
0.000113619
0.000112491
0.000111348
0.00011019
0.000109017
0.00010783
0.000106628
0.000105413
0.000104183
0.00010294
0.000101685
0.000100419
9.91354e-05
9.78209e-05
9.6475e-05
9.50949e-05
9.36755e-05
9.22095e-05
9.0686e-05
8.90926e-05
8.74116e-05
8.56281e-05
8.37101e-05
8.1612e-05
7.93176e-05
7.67643e-05
7.39396e-05
7.0772e-05
6.72021e-05
6.3247e-05
5.87689e-05
5.38904e-05
4.85913e-05
4.29576e-05
3.72234e-05
3.14039e-05
2.54454e-05
1.9773e-05
1.41117e-05
9.85804e-06
6.82711e-06
4.65219e-06
3.14386e-06
2.14006e-06
1.5902e-06
1.43416e-06
1.53078e-06
1.94689e-06
2.09965e-06
2.28053e-06
2.81495e-06
5.8828e-06
1.1202e-05
1.87827e-05
2.77766e-05
0.00012482
0.000123854
0.000122872
0.000121875
0.000120863
0.000119835
0.00011879
0.000117728
0.000116647
0.000115547
0.000114429
0.000113291
0.000112133
0.000110955
0.000109756
0.000108536
0.000107294
0.00010603
0.000104743
0.000103432
0.000102098
0.000100739
9.93571e-05
9.79495e-05
9.65205e-05
9.50254e-05
9.34609e-05
9.18119e-05
9.00574e-05
8.81759e-05
8.61418e-05
8.39306e-05
8.1517e-05
7.88766e-05
7.59962e-05
7.28584e-05
6.94754e-05
6.58495e-05
6.20133e-05
5.7992e-05
5.38248e-05
4.95576e-05
4.51924e-05
4.07602e-05
3.60543e-05
3.13374e-05
2.66016e-05
2.1837e-05
1.71207e-05
1.24357e-05
8.81414e-06
6.15123e-06
4.24885e-06
2.9178e-06
1.91362e-06
1.21443e-06
8.0468e-07
5.89654e-07
6.03604e-07
8.41982e-07
1.02641e-06
1.1289e-06
1.02849e-06
8.3438e-07
8.46655e-07
1.81744e-06
4.87757e-06
1.09372e-05
2.03264e-05
9.81113e-05
9.71956e-05
9.62539e-05
9.52916e-05
9.43078e-05
9.33029e-05
9.22767e-05
9.12306e-05
9.01622e-05
8.90736e-05
8.79598e-05
8.6826e-05
8.56635e-05
8.44785e-05
8.32679e-05
8.20345e-05
8.0776e-05
7.94937e-05
7.81812e-05
7.68455e-05
7.54718e-05
7.4076e-05
7.26308e-05
7.11261e-05
6.95366e-05
6.7891e-05
6.61853e-05
6.44199e-05
6.25933e-05
6.071e-05
5.87693e-05
5.67777e-05
5.47327e-05
5.26362e-05
5.04798e-05
4.82525e-05
4.59316e-05
4.34869e-05
4.08717e-05
3.80427e-05
3.49054e-05
3.14453e-05
2.7574e-05
2.33915e-05
1.91196e-05
1.48572e-05
1.05261e-05
7.06684e-06
4.63793e-06
2.99305e-06
1.91223e-06
1.24608e-06
8.05381e-07
5.04162e-07
2.8091e-07
1.91669e-07
1.71386e-07
1.9624e-07
2.78759e-07
3.982e-07
4.51404e-07
4.67983e-07
3.45134e-07
2.22244e-07
1.68688e-07
3.10722e-07
8.15191e-07
2.19705e-06
5.30407e-06
5.23521e-05
5.24152e-05
5.27737e-05
5.32531e-05
5.37916e-05
5.42843e-05
5.49399e-05
5.55084e-05
5.62155e-05
5.68111e-05
5.71913e-05
5.81131e-05
5.79189e-05
5.8639e-05
5.83465e-05
5.90845e-05
5.8971e-05
5.96909e-05
5.96809e-05
6.02949e-05
6.05661e-05
6.04914e-05
6.03939e-05
6.02647e-05
6.00793e-05
5.9817e-05
5.94576e-05
5.89808e-05
5.83648e-05
5.75871e-05
5.66222e-05
5.54436e-05
5.40209e-05
5.23223e-05
5.03129e-05
4.79555e-05
4.52139e-05
4.20509e-05
3.8442e-05
3.43652e-05
2.98385e-05
2.49002e-05
1.96784e-05
1.43932e-05
9.16684e-06
4.70551e-06
1.77853e-06
5.61343e-07
3.33908e-07
3.10764e-07
2.88498e-07
2.52149e-07
2.13878e-07
1.82955e-07
1.70783e-07
1.80228e-07
1.86808e-07
1.78618e-07
1.58125e-07
1.32223e-07
1.03508e-07
7.98842e-08
5.96738e-08
4.99185e-08
4.39245e-08
4.42247e-08
9.60178e-08
4.41858e-07
8.33228e-07
5.1464e-06
5.14339e-06
5.13885e-06
5.13313e-06
5.12817e-06
5.12101e-06
5.11446e-06
5.10645e-06
5.10101e-06
5.09536e-06
5.08576e-06
5.08205e-06
5.07962e-06
5.07751e-06
5.06686e-06
5.05553e-06
5.05567e-06
5.05165e-06
5.04413e-06
5.03569e-06
5.04011e-06
5.04665e-06
5.03414e-06
5.02962e-06
5.01779e-06
5.00674e-06
5.0117e-06
5.01411e-06
5.01731e-06
5.01406e-06
5.01053e-06
5.0101e-06
5.01109e-06
5.00427e-06
5.00181e-06
4.99514e-06
4.99457e-06
4.99258e-06
4.99008e-06
4.99063e-06
4.98038e-06
4.98122e-06
4.97798e-06
4.97296e-06
4.97408e-06
4.96798e-06
4.95939e-06
4.9577e-06
4.95581e-06
4.95151e-06
4.94441e-06
4.9412e-06
4.94195e-06
4.94222e-06
4.94546e-06
4.9476e-06
4.95014e-06
4.95006e-06
4.94886e-06
5.26037e-06
5.25545e-06
5.24829e-06
5.24164e-06
5.23439e-06
5.22657e-06
5.21932e-06
5.21211e-06
5.20629e-06
5.19958e-06
5.1922e-06
5.18775e-06
5.18055e-06
5.17169e-06
5.15779e-06
5.1525e-06
5.15296e-06
5.14443e-06
5.13497e-06
5.13234e-06
5.13635e-06
5.13667e-06
5.12188e-06
5.11742e-06
5.1023e-06
5.09483e-06
5.09899e-06
5.10249e-06
5.1021e-06
5.09736e-06
5.09605e-06
5.09521e-06
5.0947e-06
5.08814e-06
5.08614e-06
5.08108e-06
5.07796e-06
5.07649e-06
5.07492e-06
5.07378e-06
5.06842e-06
5.06556e-06
5.06306e-06
5.05968e-06
5.05801e-06
5.05609e-06
5.05184e-06
5.04666e-06
5.04458e-06
5.04236e-06
5.03867e-06
5.0335e-06
5.02934e-06
5.02768e-06
5.02691e-06
5.02709e-06
5.02867e-06
5.02995e-06
5.03186e-06
5.39136e-06
5.38495e-06
5.37682e-06
5.36952e-06
5.36161e-06
5.35398e-06
5.34665e-06
5.33934e-06
5.33207e-06
5.32376e-06
5.31517e-06
5.30639e-06
5.29505e-06
5.284e-06
5.27367e-06
5.27193e-06
5.26666e-06
5.25521e-06
5.24779e-06
5.24771e-06
5.24908e-06
5.24438e-06
5.22785e-06
5.22208e-06
5.20573e-06
5.20061e-06
5.204e-06
5.20762e-06
5.20425e-06
5.19872e-06
5.19879e-06
5.19705e-06
5.19533e-06
5.18945e-06
5.18716e-06
5.18305e-06
5.17918e-06
5.17703e-06
5.17563e-06
5.17445e-06
5.17118e-06
5.16799e-06
5.16538e-06
5.16314e-06
5.16094e-06
5.15963e-06
5.15744e-06
5.15462e-06
5.15179e-06
5.14824e-06
5.14494e-06
5.14133e-06
5.13794e-06
5.1343e-06
5.1334e-06
5.13216e-06
5.13398e-06
5.13469e-06
5.13442e-06
5.54614e-06
5.53914e-06
5.5305e-06
5.52266e-06
5.51425e-06
5.50594e-06
5.49729e-06
5.48816e-06
5.47835e-06
5.46763e-06
5.45644e-06
5.44469e-06
5.43266e-06
5.4228e-06
5.41514e-06
5.41083e-06
5.40003e-06
5.3889e-06
5.38448e-06
5.38408e-06
5.38339e-06
5.37131e-06
5.35439e-06
5.34658e-06
5.33001e-06
5.32697e-06
5.32946e-06
5.33207e-06
5.32634e-06
5.32037e-06
5.32082e-06
5.31812e-06
5.31561e-06
5.31026e-06
5.30782e-06
5.30422e-06
5.30021e-06
5.29739e-06
5.29567e-06
5.29457e-06
5.29258e-06
5.28985e-06
5.28745e-06
5.2858e-06
5.28408e-06
5.28302e-06
5.28193e-06
5.2806e-06
5.27912e-06
5.27731e-06
5.27538e-06
5.2716e-06
5.26694e-06
5.26165e-06
5.25995e-06
5.25914e-06
5.26091e-06
5.25968e-06
5.25982e-06
5.73124e-06
5.72339e-06
5.71359e-06
5.70443e-06
5.69441e-06
5.68411e-06
5.67307e-06
5.66139e-06
5.64905e-06
5.63624e-06
5.62339e-06
5.6109e-06
5.59958e-06
5.59023e-06
5.58175e-06
5.57291e-06
5.56012e-06
5.55164e-06
5.54904e-06
5.54683e-06
5.53907e-06
5.52189e-06
5.50502e-06
5.495e-06
5.47898e-06
5.47735e-06
5.47855e-06
5.47972e-06
5.47204e-06
5.46573e-06
5.46586e-06
5.46232e-06
5.45919e-06
5.45419e-06
5.45157e-06
5.44834e-06
5.44449e-06
5.44132e-06
5.43926e-06
5.43819e-06
5.43706e-06
5.43517e-06
5.4332e-06
5.43187e-06
5.43082e-06
5.43018e-06
5.43026e-06
5.43038e-06
5.43038e-06
5.43022e-06
5.42951e-06
5.42813e-06
5.42595e-06
5.42168e-06
5.41643e-06
5.41405e-06
5.41459e-06
5.41467e-06
5.41531e-06
5.95144e-06
5.94199e-06
5.93018e-06
5.9189e-06
5.90656e-06
5.89383e-06
5.88041e-06
5.86658e-06
5.85247e-06
5.83846e-06
5.82491e-06
5.81219e-06
5.80057e-06
5.78975e-06
5.77864e-06
5.76685e-06
5.75491e-06
5.74844e-06
5.7444e-06
5.73695e-06
5.72232e-06
5.702e-06
5.68508e-06
5.673e-06
5.658e-06
5.65696e-06
5.65695e-06
5.65601e-06
5.64655e-06
5.63987e-06
5.63924e-06
5.63491e-06
5.63117e-06
5.62637e-06
5.62354e-06
5.62058e-06
5.61705e-06
5.61383e-06
5.61158e-06
5.61051e-06
5.60997e-06
5.60893e-06
5.60777e-06
5.60712e-06
5.60658e-06
5.60694e-06
5.60558e-06
5.60585e-06
5.60682e-06
5.60731e-06
5.60989e-06
5.61062e-06
5.61341e-06
5.61353e-06
5.61264e-06
5.6117e-06
5.61074e-06
5.60982e-06
5.60812e-06
6.21357e-06
6.20209e-06
6.18791e-06
6.17434e-06
6.15972e-06
6.14483e-06
6.12949e-06
6.11404e-06
6.09865e-06
6.0836e-06
6.06908e-06
6.05519e-06
6.04181e-06
6.02856e-06
6.0152e-06
6.00238e-06
5.99146e-06
5.98413e-06
5.9754e-06
5.96127e-06
5.941e-06
5.91891e-06
5.90156e-06
5.88771e-06
5.87388e-06
5.8727e-06
5.87095e-06
5.86747e-06
5.85649e-06
5.84932e-06
5.84759e-06
5.84246e-06
5.83805e-06
5.8333e-06
5.83027e-06
5.82751e-06
5.82435e-06
5.82132e-06
5.81905e-06
5.818e-06
5.81788e-06
5.81812e-06
5.81746e-06
5.81643e-06
5.81812e-06
5.81617e-06
5.81955e-06
5.8182e-06
5.81911e-06
5.81981e-06
5.82054e-06
5.82279e-06
5.82534e-06
5.82619e-06
5.82816e-06
5.82854e-06
5.8342e-06
5.83541e-06
5.83545e-06
6.52909e-06
6.51552e-06
6.49896e-06
6.48317e-06
6.46641e-06
6.44952e-06
6.43234e-06
6.41519e-06
6.39814e-06
6.38139e-06
6.36498e-06
6.34891e-06
6.33311e-06
6.31759e-06
6.30265e-06
6.28896e-06
6.27688e-06
6.26533e-06
6.24991e-06
6.22919e-06
6.20478e-06
6.18157e-06
6.16332e-06
6.148e-06
6.13511e-06
6.13293e-06
6.12886e-06
6.12253e-06
6.11016e-06
6.10227e-06
6.09914e-06
6.09317e-06
6.08803e-06
6.08318e-06
6.07994e-06