/*--------------------------------*- C++ -*----------------------------------*\
| =========                 |                                                 |
| \\      /  F ield         | OpenFOAM: The Open Source CFD Toolbox           |
|  \\    /   O peration     | Version:  2312                                  |
|   \\  /    A nd           | Website:  www.openfoam.com                      |
|    \\/     M anipulation  |                                                 |
\*---------------------------------------------------------------------------*/
FoamFile
{
    version     2.0;
    format      ascii;
    arch        "LSB;label=32;scalar=64";
    class       volScalarField;
    location    "700";
    object      nut;
}
// * * * * * * * * * * * * * * * * * * * * * * * * * * * * * * * * * * * * * //

dimensions      [0 2 -1 0 0 0 0];

internalField   nonuniform List<scalar> 
76025
(
0.000169886
0.000169918
0.0001699
0.000169821
0.000169865
0.00016993
0.000169957
0.000169987
0.000169974
0.00017002
0.00017003
0.000170128
0.000170187
0.000170207
0.000170308
0.000170407
0.000170502
0.000170568
0.000170664
0.00017065
0.000170763
0.000170817
0.000170735
0.000170695
0.000170835
0.000170944
0.000171177
0.000171362
0.000171631
0.000171882
0.000172184
0.000172465
0.000172863
0.000173233
0.00017367
0.000174106
0.0001746
0.000175168
0.000175744
0.000176357
0.000176994
0.000177711
0.000178479
0.000179276
0.000180119
0.000181026
0.000181995
0.000183053
0.000184227
0.000185485
0.000186942
0.00018856
0.000190442
0.000192517
0.000195158
0.000198082
0.000201684
0.00020633
0.000211783
0.000219528
0.000228855
0.000242535
0.000261559
0.000284417
0.000313507
0.00034118
0.0003713
0.000394589
0.000419045
0.000171282
0.000171332
0.000171435
0.000171522
0.000171625
0.000171692
0.000171813
0.000171943
0.000172007
0.000172039
0.000172176
0.000172294
0.00017228
0.000172317
0.000172466
0.000172592
0.000172664
0.000172717
0.000172791
0.000172674
0.000172608
0.000172588
0.00017279
0.000172973
0.000173129
0.00017314
0.000173278
0.000173476
0.000173729
0.000174018
0.000174342
0.000174674
0.000175053
0.00017545
0.000175885
0.000176354
0.000176855
0.000177398
0.000177973
0.00017859
0.000179259
0.000179973
0.000180744
0.000181571
0.000182476
0.000183463
0.000184542
0.00018574
0.000187073
0.00018858
0.000190265
0.000192204
0.000194402
0.000196991
0.000200008
0.000203657
0.000208137
0.000213721
0.000221047
0.000230685
0.000243676
0.000260781
0.000282275
0.000306808
0.000334923
0.000361143
0.000388483
0.000406681
0.00042515
0.000173069
0.000173063
0.000173117
0.000173196
0.000173329
0.000173481
0.000173604
0.000173637
0.000173691
0.000173816
0.000173907
0.000174008
0.000174117
0.000174235
0.000174379
0.000174409
0.000174539
0.000174568
0.000174685
0.000174811
0.000174911
0.000175302
0.000175544
0.000175421
0.000175418
0.000175285
0.00017537
0.000175683
0.000176003
0.000176327
0.000176672
0.000177035
0.000177425
0.000177845
0.000178298
0.000178787
0.000179315
0.000179884
0.000180498
0.000181161
0.000181881
0.000182663
0.000183514
0.000184441
0.000185459
0.000186579
0.000187819
0.000189198
0.000190744
0.000192481
0.000194451
0.000196702
0.0001993
0.000202352
0.00020597
0.000210425
0.000215905
0.000223051
0.000232199
0.000244441
0.000260056
0.000279696
0.000302931
0.000328015
0.000355439
0.000378865
0.000402147
0.000415069
0.00042492
0.000175176
0.000175188
0.000175214
0.000175218
0.000175287
0.000175419
0.00017558
0.000175794
0.000176068
0.000176052
0.000176111
0.00017606
0.000176132
0.000176292
0.000176374
0.000176729
0.000176918
0.000176898
0.000177033
0.000177179
0.000177335
0.0001775
0.000177625
0.000177734
0.000177698
0.000177801
0.000177998
0.000178271
0.000178589
0.000178938
0.000179313
0.000179714
0.000180143
0.000180603
0.000181097
0.00018163
0.000182206
0.00018283
0.000183506
0.000184241
0.000185042
0.000185918
0.000186876
0.000187927
0.000189084
0.000190364
0.000191785
0.00019337
0.00019515
0.000197161
0.000199453
0.000202094
0.000205179
0.000208848
0.000213296
0.000218829
0.000225815
0.000234872
0.000246463
0.000261462
0.000279671
0.000301454
0.000325359
0.000349947
0.000375058
0.000394244
0.00041273
0.000418877
0.000420622
0.000177851
0.000177814
0.000177877
0.00017789
0.000177845
0.000177768
0.000177837
0.000178025
0.000178214
0.000178364
0.000178388
0.000178865
0.000178925
0.000179003
0.000179085
0.000179269
0.000179392
0.000179478
0.000179552
0.000179655
0.000179768
0.00017988
0.000179967
0.000180138
0.00018033
0.00018057
0.000180857
0.000181187
0.000181553
0.00018195
0.000182374
0.000182825
0.000183307
0.000183822
0.000184375
0.00018497
0.000185613
0.00018631
0.000187069
0.000187895
0.000188798
0.000189786
0.000190873
0.000192067
0.000193384
0.000194845
0.000196472
0.000198296
0.000200355
0.0002027
0.0002054
0.000208555
0.000212301
0.00021684
0.000222435
0.000229488
0.000238416
0.000249852
0.000264074
0.000281642
0.000301752
0.000324563
0.000347758
0.00037061
0.000392039
0.000405921
0.000418985
0.000417041
0.000410605
0.000181188
0.000181219
0.000181175
0.0001812
0.000181127
0.00018125
0.000181202
0.000181084
0.000181156
0.000181388
0.000181535
0.000181704
0.000181815
0.000181919
0.000182022
0.000182168
0.000182308
0.000182417
0.000182511
0.000182608
0.000182556
0.000182832
0.00018309
0.000183368
0.000183663
0.000183978
0.00018432
0.000184692
0.000185095
0.00018553
0.000185996
0.000186496
0.000187031
0.000187606
0.000188224
0.000188891
0.000189614
0.000190398
0.000191252
0.000192184
0.000193205
0.000194324
0.000195557
0.000196916
0.000198421
0.000200098
0.000201976
0.000204098
0.000206517
0.000209308
0.000212572
0.000216451
0.00022114
0.000226907
0.000234086
0.000243115
0.000254392
0.000268377
0.000285025
0.000304495
0.000325437
0.000348022
0.000369057
0.000389064
0.000405273
0.000413012
0.000419978
0.000408435
0.000394136
0.000184732
0.000184756
0.000184791
0.000184847
0.000184858
0.000185089
0.000184999
0.000184937
0.000184836
0.000184977
0.000185201
0.00018569
0.000185838
0.000185621
0.000185558
0.000185504
0.000185554
0.00018576
0.000185823
0.000186036
0.000185937
0.000186133
0.000186609
0.000187054
0.000187475
0.00018789
0.000188312
0.00018875
0.000189212
0.000189701
0.000190222
0.000190779
0.000191376
0.000192019
0.000192712
0.00019346
0.000194273
0.000195156
0.00019612
0.000197175
0.000198332
0.000199606
0.000201014
0.000202575
0.000204314
0.000206267
0.000208478
0.000211005
0.000213929
0.000217357
0.000221434
0.000226356
0.000232377
0.000239815
0.000249024
0.000260381
0.000274117
0.000290385
0.00030876
0.000329047
0.000349495
0.000370466
0.00038785
0.000403982
0.000413278
0.000414572
0.000414381
0.000391999
0.000370649
0.000188982
0.000188934
0.000188819
0.000188871
0.000189027
0.000189251
0.000189218
0.000189217
0.000189225
0.000189374
0.000189498
0.000189886
0.000190058
0.000190543
0.000190231
0.000190081
0.000189756
0.000189763
0.000190057
0.000190318
0.00019054
0.000190815
0.00019117
0.000191575
0.000192011
0.000192469
0.000192946
0.000193445
0.000193969
0.000194521
0.000195108
0.000195734
0.000196405
0.000197127
0.000197906
0.00019875
0.000199668
0.000200669
0.000201765
0.000202969
0.000204296
0.000205765
0.000207401
0.00020923
0.00021129
0.000213629
0.000216313
0.000219429
0.000223091
0.00022745
0.000232699
0.00023908
0.000246878
0.000256399
0.000267913
0.00028161
0.000297447
0.000315224
0.000334196
0.00035393
0.000372431
0.000390357
0.000402651
0.000413961
0.00041459
0.000409843
0.000400522
0.000367245
0.000340647
0.000193822
0.000193731
0.000193632
0.000193708
0.000193826
0.000194394
0.000194565
0.000194438
0.00019431
0.0001943
0.000194321
0.000194464
0.000194622
0.000194912
0.000195748
0.000195869
0.000195636
0.000195492
0.000195519
0.000195229
0.000195524
0.00019587
0.00019629
0.000196756
0.000197252
0.000197773
0.000198315
0.00019888
0.000199472
0.000200096
0.000200759
0.000201466
0.000202224
0.000203043
0.000203928
0.00020489
0.000205941
0.000207093
0.000208361
0.000209762
0.00021132
0.000213059
0.000215014
0.000217228
0.000219753
0.000222662
0.000226049
0.000230036
0.000234777
0.00024046
0.000247311
0.000255576
0.000265495
0.000277264
0.000290961
0.000306506
0.000323562
0.000341638
0.000359794
0.000377459
0.000392542
0.000405996
0.000411904
0.000417465
0.000407899
0.000398064
0.000376499
0.000335032
0.000302096
0.000199647
0.000199791
0.000199992
0.000199922
0.000199702
0.000199626
0.000199709
0.000199799
0.000199904
0.000199812
0.000199931
0.000199973
0.000200202
0.000200708
0.000201109
0.000202269
0.000202658
0.00020238
0.000202234
0.000201861
0.000201868
0.000202083
0.000202441
0.000202895
0.000203414
0.00020398
0.000204582
0.000205217
0.000205888
0.000206598
0.000207354
0.000208163
0.000209034
0.000209977
0.000211002
0.000212122
0.000213354
0.000214713
0.000216222
0.000217905
0.000219795
0.00022193
0.000224361
0.00022715
0.000230374
0.000234134
0.000238558
0.000243797
0.000250031
0.000257457
0.000266274
0.000276654
0.000288704
0.00030242
0.000317634
0.000334006
0.000350973
0.00036786
0.000383654
0.000397703
0.000407972
0.000415565
0.000414064
0.000412854
0.000392334
0.000378114
0.000341268
0.000295163
0.000256047
0.000205893
0.00020614
0.000206382
0.000206584
0.00020686
0.00020737
0.000207471
0.000207214
0.000207132
0.000207056
0.000207118
0.000206912
0.000207039
0.000207544
0.000208011
0.000208543
0.000209902
0.000209957
0.000209987
0.000209838
0.00020948
0.000209512
0.00020978
0.000210209
0.000210745
0.000211357
0.000212025
0.000212743
0.000213508
0.000214325
0.000215201
0.000216145
0.000217168
0.000218282
0.000219502
0.000220848
0.00022234
0.000224003
0.000225869
0.000227975
0.000230368
0.000233105
0.000236257
0.000239911
0.000244169
0.000249156
0.000255018
0.000261911
0.000269994
0.000279408
0.000290251
0.000302543
0.000316196
0.000330986
0.000346531
0.000362308
0.000377627
0.000391728
0.000403611
0.000412569
0.000416771
0.000417212
0.000407685
0.000398521
0.00036764
0.000348286
0.000293991
0.00025241
0.000203084
0.000214225
0.000214375
0.000214532
0.000214677
0.000214675
0.000215561
0.000216018
0.000215911
0.000215798
0.000215868
0.000216189
0.000215897
0.000215893
0.000216226
0.000216497
0.000216924
0.000217578
0.000218037
0.000218373
0.000218513
0.000218345
0.000217943
0.000218411
0.000218942
0.000219572
0.000220275
0.00022104
0.000221866
0.000222756
0.000223718
0.000224759
0.000225894
0.000227135
0.000228501
0.000230014
0.000231699
0.000233588
0.000235718
0.000238134
0.00024089
0.000244052
0.000247697
0.000251914
0.000256808
0.00026249
0.000269081
0.000276705
0.000285469
0.000295449
0.000306664
0.000319055
0.000332462
0.000346615
0.000361116
0.000375454
0.000389009
0.000401056
0.000410812
0.000417347
0.000419901
0.000416998
0.0004092
0.000391529
0.000373231
0.000334093
0.000303904
0.000242432
0.000205759
0.000151702
0.000224271
0.000224386
0.000224512
0.000224625
0.00022467
0.000224698
0.000224969
0.000225362
0.000225625
0.000225882
0.000226232
0.000226469
0.000226652
0.000226868
0.000227074
0.000227389
0.000227805
0.000228588
0.000229293
0.000229688
0.000229832
0.000229868
0.000230034
0.000230364
0.000230863
0.000231518
0.000232313
0.000233235
0.000234276
0.000235436
0.000236721
0.000238145
0.000239725
0.000241485
0.000243456
0.000245676
0.000248187
0.000251042
0.000254301
0.000258032
0.000262314
0.000267234
0.000272881
0.000279348
0.00028672
0.00029507
0.000304433
0.000314822
0.00032619
0.000338402
0.000351252
0.000364434
0.000377558
0.000390131
0.000401596
0.000411301
0.000418551
0.000422563
0.000422525
0.00041762
0.000406865
0.00039015
0.000364678
0.000336791
0.000288643
0.000251017
0.000190843
0.000158529
0.000109132
0.000236596
0.000236734
0.000236874
0.000237028
0.000237154
0.000237301
0.000237094
0.000237414
0.000237699
0.000238029
0.000238357
0.000238673
0.000238976
0.000239288
0.000239608
0.000239977
0.000240398
0.000240977
0.00024162
0.000242187
0.000242646
0.000243048
0.00024348
0.000244012
0.000244686
0.000245519
0.000246517
0.000247682
0.000249014
0.000250518
0.000252208
0.000254103
0.000256227
0.000258615
0.000261307
0.000264351
0.0002678
0.000271714
0.000276157
0.000281199
0.000286908
0.00029335
0.00030058
0.000308638
0.000317541
0.00032727
0.000337762
0.000348899
0.000360511
0.000372344
0.000384104
0.000395408
0.00040581
0.00041479
0.000421803
0.000426206
0.000427363
0.000424501
0.000416975
0.000403919
0.000384989
0.000359294
0.000326919
0.000285899
0.000235586
0.000195133
0.000144264
0.000114387
6.77122e-05
0.000251849
0.000252053
0.000252252
0.000252459
0.000252646
0.000252877
0.000252816
0.000252954
0.000253176
0.000253481
0.000253836
0.000254223
0.000254626
0.000255044
0.000255479
0.000255947
0.000256459
0.000257047
0.000257707
0.000258405
0.000259121
0.000259866
0.000260674
0.000261584
0.000262634
0.000263851
0.000265257
0.000266869
0.000268703
0.000270778
0.000273116
0.000275744
0.000278695
0.000282008
0.000285726
0.000289894
0.000294561
0.000299774
0.00030558
0.000312015
0.00031911
0.000326875
0.000335303
0.000344356
0.000353964
0.000364019
0.000374366
0.000384803
0.000395078
0.000404884
0.000413872
0.00042163
0.000427713
0.000431636
0.000432883
0.00043084
0.000424936
0.000414446
0.000398921
0.000377562
0.000350688
0.000316866
0.000275207
0.000228114
0.000182995
0.00014266
0.000102281
7.14659e-05
4.14835e-05
0.000271143
0.000271447
0.00027175
0.000272062
0.000272368
0.000272689
0.000272944
0.000273211
0.000273511
0.000273863
0.000274272
0.000274734
0.000275245
0.000275804
0.000276409
0.000277067
0.000277788
0.000278585
0.000279471
0.000280447
0.000281519
0.000282697
0.000284002
0.000285459
0.000287094
0.000288937
0.000291013
0.000293346
0.00029596
0.00029888
0.000302132
0.000305741
0.000309737
0.000314148
0.000319002
0.000324324
0.000330135
0.000336448
0.000343267
0.000350581
0.000358362
0.000366561
0.000375104
0.000383888
0.000392779
0.000401608
0.000410168
0.000418217
0.000425472
0.000431611
0.000436281
0.00043908
0.000439592
0.000437365
0.000431916
0.000422688
0.000409169
0.000390818
0.000367289
0.000338348
0.000303205
0.000260563
0.000215134
0.000172709
0.000132111
9.73264e-05
6.21193e-05
4.05839e-05
2.60167e-05
0.000296426
0.000296903
0.000297388
0.00029789
0.000298401
0.000298927
0.000299457
0.000300001
0.000300574
0.000301189
0.000301858
0.00030259
0.000303393
0.000304271
0.00030523
0.000306278
0.000307424
0.000308678
0.000310054
0.000311565
0.000313222
0.000315041
0.000317039
0.000319235
0.000321649
0.000324303
0.000327215
0.000330406
0.000333892
0.00033769
0.000341815
0.000346276
0.000351085
0.000356248
0.000361763
0.000367626
0.000373821
0.000380323
0.000387093
0.000394077
0.000401203
0.000408379
0.000415488
0.000422392
0.000428923
0.000434888
0.000440061
0.000444192
0.000446993
0.000448152
0.00044733
0.000444153
0.000438244
0.000429217
0.000416579
0.00039992
0.00037877
0.000353019
0.000322242
0.000284235
0.000241832
0.00019962
0.000158595
0.000120659
8.68171e-05
5.68498e-05
3.43303e-05
2.4416e-05
1.79779e-05
0.000331593
0.000332425
0.000333281
0.000334169
0.000335085
0.000336033
0.000337015
0.000338036
0.000339103
0.000340225
0.00034141
0.000342667
0.000344004
0.000345431
0.000346955
0.000348583
0.000350323
0.000352184
0.000354176
0.000356308
0.000358589
0.000361031
0.000363642
0.000366435
0.000369418
0.000372602
0.000375993
0.000379597
0.00038342
0.000387461
0.000391717
0.000396183
0.000400847
0.000405694
0.0004107
0.000415833
0.000421054
0.000426309
0.000431535
0.000436652
0.000441564
0.000446156
0.000450296
0.000453828
0.000456576
0.000458338
0.000458889
0.000457983
0.000455338
0.000450662
0.000443649
0.000433955
0.00042127
0.000405263
0.000385469
0.000361786
0.000333776
0.000299995
0.000260827
0.00021997
0.000180582
0.000142096
0.000106649
7.56225e-05
4.94453e-05
3.00268e-05
2.02298e-05
1.63682e-05
1.30336e-05
0.000384847
0.000386162
0.000387494
0.00038885
0.000390227
0.000391627
0.000393056
0.000394514
0.000396008
0.00039754
0.000399115
0.000400738
0.000402415
0.00040415
0.000405947
0.000407811
0.000409746
0.000411755
0.000413843
0.000416013
0.000418269
0.000420614
0.000423051
0.000425581
0.000428207
0.000430927
0.000433739
0.00043664
0.000439621
0.000442672
0.000445777
0.000448918
0.000452071
0.000455205
0.000458285
0.000461265
0.00046409
0.000466694
0.000469
0.000470916
0.000472335
0.000473134
0.000473171
0.000472287
0.000470301
0.000467017
0.00046221
0.000455653
0.000447061
0.000436201
0.000422814
0.000406574
0.000387315
0.000364723
0.000338637
0.000307438
0.000271181
0.000232595
0.000194975
0.000158114
0.000122786
9.06925e-05
6.3546e-05
4.13659e-05
2.53284e-05
1.67953e-05
1.37477e-05
1.11251e-05
1.01692e-05
0.000460835
0.000462034
0.000463233
0.000464434
0.000465628
0.0004668
0.000467953
0.000469094
0.000470224
0.000471347
0.000472465
0.00047358
0.000474693
0.000475804
0.000476914
0.000478022
0.00047913
0.000480237
0.000481343
0.00048245
0.000483557
0.000484661
0.000485762
0.000486856
0.000487939
0.000489004
0.000490043
0.000491044
0.00049199
0.00049286
0.000493633
0.000494285
0.000494784
0.000495093
0.000495169
0.000494959
0.000494403
0.000493425
0.000491941
0.00048985
0.000487038
0.000483381
0.00047873
0.000472924
0.000465788
0.000457132
0.000446742
0.000434426
0.000419886
0.000403047
0.000383717
0.000361435
0.000336589
0.000306314
0.000272725
0.000236733
0.000201431
0.000165919
0.000133075
0.000101436
7.37062e-05
5.09484e-05
3.30965e-05
2.0302e-05
1.37252e-05
1.11386e-05
8.77899e-06
7.93455e-06
1.08667e-05
0.000545555
0.000545608
0.000545647
0.000545666
0.000545659
0.000545619
0.000545543
0.00054543
0.000545277
0.000545082
0.000544843
0.000544557
0.000544219
0.000543814
0.000543341
0.000542803
0.0005422
0.000541532
0.000540798
0.000539998
0.000539128
0.000538184
0.000537159
0.000536045
0.000534834
0.000533514
0.00053207
0.000530481
0.000528704
0.000526726
0.000524528
0.000522088
0.000519368
0.000516329
0.000512925
0.000509102
0.00050479
0.000499904
0.000494347
0.000488014
0.000480789
0.000472555
0.000463137
0.000452404
0.000440197
0.000426345
0.000410654
0.000392997
0.000373083
0.000351275
0.000325804
0.000296385
0.000264974
0.000231365
0.000199024
0.000165531
0.000135436
0.000105311
7.95602e-05
5.63376e-05
3.84452e-05
2.50208e-05
1.52545e-05
1.09259e-05
8.55895e-06
6.69208e-06
6.30179e-06
8.72867e-06
1.53485e-05
0.00061309
0.000611603
0.000610068
0.000608481
0.000606839
0.000605138
0.000603376
0.000601549
0.000599654
0.000597688
0.000595648
0.000593528
0.000591326
0.000589037
0.000586655
0.000584178
0.000581599
0.000578922
0.000576153
0.000573278
0.000570286
0.000567162
0.000563896
0.000560474
0.00055688
0.000553097
0.000549099
0.000544835
0.000540146
0.000535201
0.000529981
0.00052446
0.000518564
0.000512248
0.000505498
0.000498231
0.000490356
0.000481765
0.000472341
0.000462005
0.000450642
0.000438171
0.000424319
0.000409136
0.000392497
0.000374165
0.000354092
0.000330779
0.00030498
0.000277063
0.000247092
0.000216996
0.000186726
0.000156941
0.000129489
0.000101792
7.86996e-05
5.73354e-05
4.00148e-05
2.69184e-05
1.72856e-05
1.08463e-05
8.12834e-06
6.10216e-06
4.96167e-06
4.94051e-06
7.24326e-06
1.28794e-05
2.80054e-05
0.000643197
0.000640254
0.000637261
0.00063421
0.00063109
0.000627893
0.000624615
0.000621251
0.000617796
0.000614246
0.000610595
0.000606839
0.000602974
0.000598994
0.000594894
0.000590668
0.00058631
0.000581813
0.00057717
0.000572355
0.000567356
0.000562166
0.000556775
0.000551174
0.000545348
0.000539281
0.000532955
0.000526345
0.000519408
0.00051212
0.000504516
0.000496629
0.000488105
0.000479039
0.000469706
0.000459674
0.00044885
0.00043711
0.000424317
0.000410587
0.000395781
0.000379844
0.000362269
0.000342967
0.000321543
0.000298309
0.000273052
0.000246571
0.000219925
0.000192657
0.000165657
0.000139795
0.000114596
9.1677e-05
7.10851e-05
5.26283e-05
3.78583e-05
2.566e-05
1.68603e-05
1.09483e-05
7.26032e-06
5.2946e-06
4.07967e-06
3.50927e-06
3.88098e-06
5.84865e-06
1.0021e-05
2.13297e-05
3.83143e-05
0.000620571
0.000616732
0.000612824
0.000608841
0.000604773
0.000600615
0.000596361
0.000592006
0.000587545
0.000582974
0.000578288
0.000573481
0.000568549
0.000563484
0.00055828
0.00055293
0.000547426
0.000541756
0.000535893
0.000529829
0.000523556
0.000517067
0.000510349
0.000503392
0.000496179
0.000488694
0.000480915
0.000472816
0.000464371
0.00045555
0.000446321
0.000436647
0.000426456
0.000415691
0.0004043
0.000392206
0.000379185
0.000365108
0.000349774
0.00033305
0.000314905
0.000295459
0.000274162
0.000252674
0.000229398
0.000206778
0.000182813
0.000159165
0.000136487
0.000113703
9.32692e-05
7.45904e-05
5.78272e-05
4.36209e-05
3.14648e-05
2.17992e-05
1.43509e-05
9.39298e-06
6.22262e-06
4.24686e-06
3.10496e-06
2.54333e-06
2.42824e-06
2.97928e-06
4.87286e-06
7.80154e-06
1.37523e-05
2.58984e-05
4.56456e-05
0.000538937
0.000534906
0.000530795
0.000526602
0.00052232
0.000517944
0.000513469
0.000508892
0.000504209
0.000499415
0.000494505
0.000489476
0.000484321
0.000479021
0.000473564
0.000467946
0.000462163
0.000456209
0.000450075
0.000443752
0.000437229
0.000430497
0.000423543
0.000416352
0.000408905
0.000401182
0.000393139
0.000384765
0.000375995
0.000366761
0.000356989
0.000346602
0.000335518
0.000323644
0.000310913
0.000297178
0.000282556
0.000267001
0.000250563
0.000233145
0.000214889
0.000196046
0.000176288
0.000157202
0.000136574
0.000118295
9.9097e-05
8.22492e-05
6.70205e-05
5.26467e-05
4.1448e-05
3.12168e-05
2.28397e-05
1.58664e-05
1.04208e-05
6.89299e-06
4.61691e-06
3.19365e-06
2.29051e-06
1.75759e-06
1.54685e-06
1.70049e-06
2.32426e-06
4.29847e-06
5.93591e-06
8.45293e-06
1.35792e-05
2.41959e-05
4.21409e-05
0.000399202
0.000395784
0.000392301
0.000388753
0.00038513
0.000381417
0.000377613
0.000373717
0.000369728
0.000365645
0.000361465
0.000357185
0.0003528
0.000348305
0.000343693
0.000338957
0.00033409
0.000329087
0.000323937
0.000318636
0.000313169
0.000307534
0.000301715
0.000295688
0.000289428
0.0002829
0.00027597
0.000268552
0.000260602
0.000252076
0.000242928
0.000233108
0.000222582
0.000211308
0.000199292
0.000186519
0.000173063
0.000158927
0.000144347
0.000129433
0.000114481
9.98744e-05
8.55086e-05
7.24871e-05
5.98359e-05
4.92835e-05
3.93035e-05
3.12385e-05
2.43553e-05
1.8327e-05
1.39293e-05
9.48218e-06
6.23847e-06
4.29778e-06
3.02774e-06
2.13024e-06
1.50028e-06
1.11119e-06
9.59493e-07
1.03555e-06
1.37649e-06
2.22378e-06
2.82158e-06
3.26932e-06
3.13203e-06
5.46999e-06
9.93909e-06
1.82327e-05
3.24879e-05
0.000222648
0.000220532
0.000218371
0.000216166
0.000213919
0.000211626
0.000209286
0.000206897
0.000204459
0.000201968
0.000199425
0.000196824
0.000194163
0.000191435
0.00018864
0.000185767
0.000182817
0.000179783
0.000176652
0.00017344
0.000170097
0.000166684
0.00016312
0.000159341
0.00015533
0.000150817
0.000145807
0.000140275
0.000134199
0.000127572
0.000120403
0.000112718
0.000104586
9.60654e-05
8.73108e-05
7.84219e-05
6.95981e-05
6.10234e-05
5.28085e-05
4.5216e-05
3.82005e-05
3.20321e-05
2.65396e-05
2.18111e-05
1.76754e-05
1.4097e-05
1.11467e-05
8.53367e-06
6.36958e-06
4.41012e-06
3.05426e-06
2.18925e-06
1.59696e-06
1.17639e-06
8.43801e-07
6.16091e-07
5.06497e-07
4.63956e-07
6.33021e-07
1.19099e-06
1.63755e-06
1.88488e-06
1.73714e-06
1.19924e-06
8.33145e-07
1.30268e-06
3.12871e-06
7.02701e-06
1.5236e-05
6.74266e-05
6.67065e-05
6.59645e-05
6.52029e-05
6.44247e-05
6.36279e-05
6.2817e-05
6.19885e-05
6.11493e-05
6.02908e-05
5.94198e-05
5.85318e-05
5.7626e-05
5.66964e-05
5.57458e-05
5.47673e-05
5.37663e-05
5.27414e-05
5.16725e-05
5.0612e-05
4.94363e-05
4.83699e-05
4.6981e-05
4.52873e-05
4.33093e-05
4.11308e-05
3.87972e-05
3.63578e-05
3.38577e-05
3.13451e-05
2.88565e-05
2.64308e-05
2.40929e-05
2.18658e-05
1.97635e-05
1.77885e-05
1.59453e-05
1.42252e-05
1.26179e-05
1.11136e-05
9.67903e-06
8.3205e-06
6.99573e-06
5.7369e-06
4.56981e-06
3.49442e-06
2.48064e-06
1.68746e-06
1.14279e-06
7.8492e-07
5.59196e-07
4.34803e-07
3.41745e-07
2.62886e-07
1.69793e-07
1.23413e-07
1.29816e-07
1.76121e-07
2.65207e-07
4.1656e-07
4.97447e-07
5.23348e-07
3.74752e-07
2.15355e-07
1.31583e-07
1.5954e-07
3.20879e-07
7.83353e-07
1.84547e-06
6.11917e-06
6.13299e-06
6.18154e-06
6.24355e-06
6.31406e-06
6.3799e-06
6.46415e-06
6.54008e-06
6.63515e-06
6.71269e-06
6.77115e-06
6.89532e-06
6.89153e-06
6.99809e-06
6.97919e-06
7.08799e-06
7.08938e-06
7.19798e-06
7.21374e-06
7.31255e-06
7.36568e-06
7.384e-06
7.40055e-06
7.41442e-06
7.42274e-06
7.42303e-06
7.41285e-06
7.38967e-06
7.35076e-06
7.29318e-06
7.21357e-06
7.1083e-06
6.97313e-06
6.80344e-06
6.59399e-06
6.33891e-06
6.03209e-06
5.66677e-06
5.23725e-06
4.73756e-06
4.1663e-06
3.52457e-06
2.82558e-06
2.09733e-06
1.35557e-06
7.05195e-07
2.69366e-07
8.56617e-08
5.12605e-08
4.79802e-08
4.47958e-08
3.93738e-08
3.35853e-08
2.88884e-08
2.71127e-08
2.87641e-08
2.99698e-08
2.88033e-08
2.56269e-08
2.15343e-08
1.69379e-08
1.31322e-08
9.853e-09
8.27686e-09
7.31206e-09
7.38957e-09
1.60966e-08
7.42341e-08
1.40288e-07
0.00017299
0.000172918
0.00017282
0.000172701
0.00017259
0.000172441
0.000172301
0.000172132
0.000172004
0.000171879
0.000171675
0.000171571
0.00017149
0.000171385
0.000171158
0.000170933
0.000170913
0.000170778
0.00017063
0.000170478
0.000170535
0.000170645
0.000170405
0.00017029
0.000170055
0.000169831
0.000169884
0.000169915
0.000169981
0.000169916
0.000169827
0.000169796
0.000169808
0.000169717
0.000169697
0.000169622
0.00016966
0.000169657
0.000169652
0.000169708
0.000169558
0.000169614
0.000169594
0.000169591
0.000169657
0.000169578
0.00016948
0.00016952
0.000169547
0.000169539
0.000169462
0.000169452
0.000169515
0.000169531
0.000169626
0.000169667
0.000169766
0.000169813
0.000169837
0.000174937
0.000174833
0.000174692
0.000174555
0.000174407
0.000174248
0.000174095
0.000173941
0.000173809
0.000173662
0.000173498
0.000173382
0.000173214
0.000173018
0.000172752
0.000172641
0.000172649
0.000172393
0.00017224
0.000172182
0.000172241
0.000172245
0.000171954
0.000171841
0.000171554
0.000171394
0.000171438
0.000171488
0.000171493
0.000171403
0.000171351
0.000171315
0.000171303
0.000171214
0.000171204
0.000171146
0.000171146
0.000171163
0.000171168
0.000171186
0.000171127
0.000171116
0.000171113
0.000171118
0.000171144
0.000171153
0.000171134
0.000171089
0.000171104
0.000171134
0.000171146
0.000171105
0.000171069
0.000171087
0.000171082
0.000171087
0.00017114
0.000171149
0.000171208
0.000177127
0.000176998
0.000176841
0.000176695
0.000176537
0.000176382
0.00017623
0.000176077
0.000175923
0.000175751
0.000175571
0.000175387
0.000175161
0.000174948
0.000174742
0.000174687
0.000174571
0.00017431
0.000174197
0.000174185
0.000174192
0.000174105
0.000173785
0.000173653
0.00017335
0.00017323
0.000173267
0.000173319
0.000173274
0.000173171
0.000173142
0.000173093
0.000173061
0.000172978
0.00017297
0.000172924
0.000172903
0.000172921
0.000172935
0.000172945
0.000172914
0.0001729
0.000172906
0.000172924
0.000172949
0.000172967
0.000172973
0.000172989
0.00017299
0.000172954
0.00017294
0.000172936
0.000172932
0.000172917
0.000172972
0.000172973
0.000173022
0.000173034
0.000173022
0.000179659
0.000179522
0.000179359
0.000179206
0.000179043
0.00017888
0.00017871
0.00017853
0.000178338
0.00017813
0.000177912
0.000177686
0.000177457
0.000177268
0.000177112
0.000177013
0.000176801
0.000176578
0.000176523
0.000176495
0.000176476
0.000176247
0.000175926
0.000175765
0.000175461
0.000175378
0.000175405
0.000175441
0.000175357
0.000175248
0.000175226
0.000175162
0.000175118
0.000175043
0.000175032
0.000174996
0.000174965
0.00017497
0.000174992
0.000175004
0.000174996
0.00017498
0.000174983
0.000175014
0.000175055
0.000175101
0.000175109
0.000175128
0.000175171
0.000175211
0.000175227
0.000175181
0.00017511
0.000175026
0.00017506
0.000175115
0.000175203
0.000175198
0.000175173
0.000182626
0.000182478
0.0001823
0.000182129
0.000181944
0.000181752
0.000181548
0.000181332
0.000181103
0.000180866
0.000180629
0.000180398
0.000180188
0.000180012
0.000179847
0.000179677
0.00017944
0.000179285
0.000179255
0.000179198
0.000179047
0.000178737
0.000178423
0.00017823
0.000177939
0.000177884
0.000177892
0.000177906
0.00017779
0.000177676
0.00017765
0.000177575
0.000177521
0.000177452
0.000177436
0.000177409
0.00017738
0.000177374
0.00017739
0.00017741
0.00017742
0.000177418
0.000177422
0.000177446
0.000177485
0.000177551
0.000177641
0.000177669
0.000177704
0.000177752
0.00017782
0.000177877
0.000177887
0.000177814
0.00017771
0.00017769
0.000177779
0.0001778
0.00017784
0.000186081
0.000185911
0.000185705
0.000185505
0.000185288
0.000185063
0.000184827
0.000184582
0.000184333
0.000184084
0.000183843
0.000183617
0.000183409
0.000183213
0.000183012
0.000182801
0.000182591
0.00018248
0.000182416
0.00018227
0.000182007
0.000181653
0.000181344
0.000181123
0.000180854
0.000180818
0.000180806
0.000180785
0.000180641
0.000180523
0.000180486
0.000180399
0.000180337
0.000180272
0.000180251
0.00018023
0.000180205
0.000180196
0.000180208
0.000180231
0.000180255
0.000180268
0.000180284
0.000180317
0.000180355
0.000180426
0.000180443
0.000180533
0.000180573
0.000180603
0.000180716
0.000180779
0.000180955
0.000181067
0.000181125
0.000181182
0.000181165
0.000181182
0.000181111
0.0001901
0.000189903
0.000189667
0.000189437
0.000189191
0.00018894
0.000188681
0.000188419
0.000188157
0.000187901
0.000187654
0.000187416
0.000187187
0.000186959
0.00018673
0.000186512
0.000186328
0.000186206
0.000186059
0.000185807
0.000185461
0.000185085
0.000184777
0.000184533
0.000184289
0.000184252
0.000184216
0.000184158
0.000183992
0.000183867
0.000183814
0.000183718
0.000183647
0.000183584
0.000183558
0.000183541
0.000183522
0.000183514
0.000183524
0.00018355
0.000183584
0.000183626
0.000183643
0.000183647
0.000183738
0.000183713
0.000183857
0.000183859
0.000183923
0.000183951
0.000183976
0.000184051
0.000184143
0.000184197
0.000184299
0.000184419
0.000184626
0.0001847
0.000184741
0.000194818
0.000194596
0.000194332
0.000194076
0.000193806
0.000193533
0.000193254
0.000192976
0.000192698
0.000192425
0.000192157
0.000191894
0.000191635
0.000191381
0.000191136
0.000190914
0.000190718
0.00019053
0.000190275
0.000189926
0.000189524
0.000189139
0.000188826
0.000188566
0.000188343
0.000188294
0.000188225
0.000188126
0.000187941
0.000187807
0.000187735
0.000187628
0.000187548
0.000187484