/*--------------------------------*- C++ -*----------------------------------*\
| =========                 |                                                 |
| \\      /  F ield         | OpenFOAM: The Open Source CFD Toolbox           |
|  \\    /   O peration     | Version:  2312                                  |
|   \\  /    A nd           | Website:  www.openfoam.com                      |
|    \\/     M anipulation  |                                                 |
\*---------------------------------------------------------------------------*/
FoamFile
{
    version     2.0;
    format      ascii;
    arch        "LSB;label=32;scalar=64";
    class       volScalarField;
    location    "700";
    object      omega;
}
// * * * * * * * * * * * * * * * * * * * * * * * * * * * * * * * * * * * * * //

dimensions      [0 0 -1 0 0 0 0];

internalField   nonuniform List<scalar> 
76025
(
0.0291277
0.0291105
0.0290896
0.0290754
0.0290569
0.029056
0.0290489
0.0290374
0.0290189
0.0290052
0.0289937
0.028982
0.0289695
0.0289496
0.0289348
0.0289172
0.0289045
0.0288937
0.0288783
0.0288724
0.0288728
0.0288726
0.0288732
0.0288762
0.0288712
0.0288686
0.0288812
0.0288879
0.0289092
0.0289274
0.0289538
0.0289765
0.0290188
0.0290561
0.0291047
0.0291526
0.0292104
0.0292805
0.0293514
0.0294284
0.0295088
0.029603
0.0297047
0.0298105
0.0299226
0.0300456
0.0301762
0.0303199
0.0304814
0.030656
0.0308614
0.0310925
0.0313658
0.031664
0.0320597
0.0324786
0.033019
0.0336715
0.0344602
0.0354748
0.0366398
0.038311
0.0403925
0.0431692
0.0464216
0.0504948
0.0551252
0.0613954
0.0686648
0.0293905
0.0293856
0.0293722
0.0293564
0.0293376
0.0293298
0.0293178
0.0293182
0.0293103
0.0292964
0.0292854
0.0292691
0.0292674
0.0292561
0.029254
0.0292401
0.0292413
0.0292405
0.0292402
0.0292397
0.0292422
0.0292443
0.0292362
0.0292361
0.0292386
0.0292588
0.0292713
0.0292799
0.0292927
0.0293111
0.0293359
0.0293631
0.0293994
0.0294395
0.0294865
0.0295395
0.0295979
0.0296633
0.0297337
0.0298108
0.0298964
0.0299888
0.0300902
0.0302
0.0303222
0.0304568
0.0306057
0.0307729
0.0309616
0.0311773
0.0314213
0.0317041
0.0320274
0.0324093
0.0328544
0.0333859
0.0340327
0.0348025
0.0357917
0.0369941
0.0385717
0.0405484
0.0429564
0.0459894
0.0494552
0.0539124
0.0591482
0.0657622
0.074054
0.0296755
0.0296833
0.0296844
0.029682
0.0296691
0.0296531
0.029641
0.0296448
0.0296442
0.0296316
0.0296334
0.0296317
0.029631
0.0296287
0.0296206
0.0296245
0.0296162
0.0296248
0.0296222
0.0296217
0.0296437
0.0296516
0.0296429
0.0296507
0.0296581
0.0297002
0.029719
0.0297099
0.0297121
0.0297247
0.0297465
0.0297749
0.0298105
0.0298525
0.0299013
0.0299566
0.0300189
0.0300882
0.0301648
0.0302493
0.0303429
0.0304464
0.0305606
0.0306869
0.0308271
0.0309833
0.0311582
0.0313548
0.0315777
0.0318303
0.0321192
0.0324501
0.0328345
0.0332813
0.0338114
0.0344425
0.0352108
0.0361493
0.0373266
0.0387796
0.0406122
0.0428482
0.0455571
0.0489123
0.0527413
0.0577089
0.0634021
0.0707392
0.080101
0.0300285
0.0300285
0.0300279
0.0300391
0.0300417
0.0300387
0.0300366
0.0300356
0.0300371
0.0300356
0.0300268
0.0300376
0.0300405
0.0300343
0.0300495
0.0300496
0.0300452
0.0300652
0.0300568
0.0300505
0.0300507
0.0300564
0.0300675
0.030078
0.0301164
0.030138
0.0301518
0.0301616
0.030174
0.0301916
0.0302159
0.0302471
0.0302855
0.0303313
0.0303844
0.0304451
0.0305138
0.0305909
0.0306769
0.0307725
0.0308789
0.0309972
0.0311287
0.0312747
0.0314375
0.0316195
0.0318236
0.0320537
0.0323139
0.0326099
0.0329484
0.0333381
0.0337913
0.0343226
0.0349562
0.0357149
0.0366464
0.0377787
0.0391969
0.0409125
0.0430484
0.0455816
0.0486388
0.0523343
0.0565539
0.062089
0.0683284
0.0766198
0.0872418
0.0304505
0.0304494
0.0304587
0.0304631
0.0304616
0.0304752
0.0304789
0.0304739
0.0304753
0.0304771
0.0304947
0.030489
0.0304843
0.0304816
0.0304862
0.0304893
0.0305025
0.0305188
0.030535
0.0305474
0.0305612
0.0305792
0.0306046
0.0306197
0.0306361
0.0306512
0.0306653
0.0306803
0.0306987
0.030722
0.0307518
0.0307886
0.0308329
0.0308852
0.0309457
0.0310148
0.0310931
0.0311811
0.0312795
0.0313894
0.0315119
0.0316484
0.0318006
0.03197
0.032159
0.0323705
0.0326081
0.0328761
0.03318
0.0335265
0.0339246
0.0343856
0.0349253
0.0355632
0.0363276
0.0372485
0.0383747
0.0397381
0.0414176
0.043412
0.0458546
0.048681
0.0521109
0.0561689
0.0608849
0.0671373
0.0740294
0.0836683
0.0958325
0.0309637
0.0309603
0.0309716
0.0309756
0.0309737
0.030978
0.0309803
0.0309999
0.031004
0.0309943
0.0309964
0.0309999
0.0310051
0.0310105
0.0310184
0.0310246
0.0310362
0.0310551
0.0310788
0.0311037
0.0311574
0.0311595
0.0311693
0.0311808
0.031196
0.0312141
0.031235
0.0312593
0.0312877
0.0313213
0.0313612
0.0314079
0.0314623
0.031525
0.0315964
0.0316773
0.0317683
0.0318704
0.0319845
0.0321118
0.0322537
0.0324117
0.0325881
0.0327846
0.0330041
0.0332502
0.0335273
0.0338408
0.0341978
0.0346072
0.0350806
0.0356331
0.0362845
0.0370587
0.0379882
0.0391057
0.0404595
0.042078
0.0440341
0.046317
0.049081
0.0522258
0.0560993
0.0605764
0.0659662
0.0730946
0.0808107
0.0923916
0.106431
0.0315924
0.0315927
0.0315934
0.031595
0.0315901
0.0315908
0.0315971
0.0316048
0.0316318
0.0316395
0.0316337
0.031633
0.0316372
0.0316527
0.0316618
0.0316887
0.0317115
0.0317165
0.0317526
0.0317674
0.0318405
0.0318692
0.031856
0.0318546
0.0318641
0.0318818
0.0319064
0.0319373
0.0319744
0.032018
0.0320686
0.0321267
0.0321932
0.0322685
0.0323533
0.0324485
0.0325551
0.0326741
0.0328068
0.0329547
0.0331193
0.0333028
0.0335077
0.0337365
0.0339926
0.0342808
0.0346067
0.0349775
0.0354025
0.0358934
0.0364651
0.0371364
0.0379307
0.0388751
0.0400031
0.0413474
0.0429516
0.0448409
0.0470857
0.0496748
0.052794
0.0563085
0.0607345
0.065713
0.0720577
0.0802216
0.089105
0.103511
0.119512
0.0323314
0.032327
0.0323393
0.0323352
0.0323324
0.0323498
0.0323428
0.0323373
0.0323408
0.0323436
0.0323548
0.0323657
0.0323843
0.0323983
0.0324369
0.0324498
0.0325103
0.0325327
0.0325211
0.0325276
0.0325512
0.0325751
0.0325944
0.0326136
0.0326356
0.0326624
0.032695
0.0327343
0.0327807
0.0328345
0.0328964
0.0329668
0.0330464
0.0331359
0.033236
0.0333478
0.0334725
0.0336114
0.033766
0.0339382
0.0341302
0.0343444
0.0345842
0.034853
0.0351555
0.0354976
0.035887
0.0363331
0.0368479
0.0374461
0.0381456
0.0389678
0.0399382
0.0410846
0.0424387
0.0440313
0.0459022
0.0480783
0.0506346
0.0535702
0.0571089
0.0610847
0.0662255
0.0718349
0.079565
0.0888844
0.0996886
0.117944
0.13576
0.0332152
0.0332165
0.0332086
0.0332239
0.0332211
0.0332095
0.0332061
0.0332043
0.0332146
0.0332238
0.0332472
0.0332609
0.0333061
0.0333052
0.0333145
0.0333252
0.0333426
0.0333647
0.0333804
0.0334705
0.0334793
0.0334949
0.0335114
0.0335312
0.0335563
0.0335881
0.0336274
0.0336746
0.0337303
0.0337947
0.0338684
0.033952
0.0340461
0.0341515
0.034269
0.0344002
0.0345462
0.0347089
0.0348902
0.0350925
0.0353186
0.0355719
0.0358567
0.0361781
0.0365419
0.036956
0.0374303
0.0379766
0.0386092
0.0393453
0.0402045
0.0412094
0.042385
0.0437581
0.0453586
0.0472174
0.0493755
0.0518694
0.0547845
0.0581412
0.0622046
0.066789
0.0728734
0.0793258
0.0890552
0.0996139
0.11388
0.13661
0.157235
0.0342317
0.0342386
0.0342425
0.0342758
0.0342882
0.0342956
0.0342921
0.0342912
0.0342942
0.0343332
0.0343472
0.0343762
0.0343948
0.0343766
0.0343679
0.0343716
0.0343798
0.0344073
0.0344315
0.0345152
0.0345575
0.0345861
0.0346091
0.0346327
0.034661
0.0346965
0.0347407
0.0347945
0.0348585
0.0349331
0.0350189
0.0351164
0.0352266
0.0353501
0.0354883
0.0356426
0.035815
0.0360076
0.036223
0.0364644
0.0367356
0.0370413
0.0373868
0.037779
0.0382256
0.0387361
0.0393224
0.0399981
0.0407791
0.0416835
0.0427312
0.0439445
0.0453477
0.0469678
0.0488361
0.0509884
0.0534736
0.0563445
0.0597022
0.0636015
0.0683479
0.0737695
0.081113
0.0887723
0.10131
0.113332
0.133701
0.160589
0.187218
0.0354883
0.0354783
0.0354713
0.0354758
0.0354811
0.0354887
0.0354991
0.0355142
0.0355268
0.0355607
0.0355775
0.0356478
0.0356736
0.0356546
0.0356472
0.0356479
0.0356598
0.0356842
0.0357149
0.0357685
0.0358665
0.0359164
0.0359472
0.0359724
0.0360005
0.0360363
0.0360827
0.0361411
0.0362123
0.036297
0.0363956
0.0365089
0.0366379
0.0367835
0.0369473
0.0371315
0.0373382
0.0375705
0.0378319
0.0381265
0.0384592
0.0388361
0.039264
0.0397511
0.0403065
0.0409413
0.0416682
0.0425018
0.0434584
0.0445561
0.0458153
0.0472585
0.0489119
0.0508061
0.0529788
0.0554761
0.0583604
0.0617075
0.0656405
0.0702671
0.0759296
0.0825416
0.0915784
0.101078
0.117423
0.131798
0.161834
0.191083
0.236797
0.0369194
0.0369261
0.0369349
0.0369567
0.0370051
0.0370189
0.0370033
0.0370052
0.0370225
0.037047
0.0370642
0.0371627
0.037203
0.0371927
0.0371905
0.0371956
0.0372068
0.0372363
0.0372706
0.0373238
0.0374247
0.037572
0.0375838
0.0376033
0.037627
0.0376617
0.0377103
0.0377742
0.0378544
0.0379515
0.0380663
0.0381998
0.0383533
0.038528
0.0387264
0.0389509
0.0392047
0.0394916
0.0398159
0.040183
0.0405987
0.0410702
0.0416053
0.0422132
0.0429038
0.0436885
0.0445807
0.0455954
0.0467496
0.0480626
0.0495567
0.0512579
0.0531979
0.055415
0.0579578
0.0608875
0.0642868
0.0682622
0.0729716
0.0785993
0.0855286
0.0938766
0.105215
0.117648
0.13908
0.15823
0.200601
0.235651
0.312671
0.0386802
0.0386941
0.0387092
0.0387342
0.0387752
0.0388419
0.0388596
0.0388395
0.0388338
0.0388441
0.0388628
0.0389027
0.038944
0.038977
0.0390064
0.0390347
0.039062
0.0390976
0.0391295
0.0391843
0.0392609
0.03935
0.0394244
0.0394887
0.039549
0.0396118
0.0396828
0.0397666
0.0398665
0.0399854
0.0401254
0.0402886
0.0404771
0.0406932
0.0409399
0.0412205
0.0415388
0.0418994
0.0423074
0.0427687
0.0432901
0.0438792
0.0445443
0.0452951
0.0461422
0.0470981
0.0481762
0.0493935
0.0507701
0.0523282
0.054095
0.0561034
0.0583938
0.0610161
0.0640343
0.0675315
0.0716204
0.0764521
0.0822429
0.0892826
0.0980272
0.108945
0.123483
0.140748
0.169207
0.196207
0.256273
0.303412
0.409557
0.0408376
0.0408557
0.0408749
0.0408964
0.0409257
0.0409564
0.0410489
0.0410521
0.0410597
0.0410674
0.041088
0.0411206
0.0411601
0.0412013
0.0412434
0.0412847
0.0413262
0.0413689
0.0414133
0.0414711
0.0415452
0.0416317
0.0417227
0.0418145
0.0419073
0.042004
0.0421089
0.0422268
0.042362
0.0425185
0.0426998
0.0429093
0.04315
0.0434252
0.0437386
0.0440941
0.0444962
0.0449498
0.0454607
0.0460351
0.0466804
0.0474046
0.0482172
0.0491289
0.050152
0.0513008
0.0525924
0.0540465
0.055687
0.0575413
0.0596457
0.0620429
0.0647853
0.0679386
0.0715906
0.0758577
0.0808998
0.0869365
0.0942807
0.103366
0.114817
0.129545
0.148804
0.174259
0.21184
0.25448
0.335179
0.398589
0.564094
0.0435081
0.043531
0.0435554
0.043581
0.0436115
0.0436366
0.0437123
0.0437585
0.0437937
0.043821
0.0438487
0.0438817
0.0439205
0.0439646
0.0440139
0.0440674
0.0441251
0.0441862
0.0442515
0.0443251
0.0444105
0.0445082
0.0446169
0.0447351
0.0448624
0.0450002
0.0451514
0.0453193
0.0455081
0.0457217
0.0459642
0.0462394
0.046551
0.0469032
0.0473001
0.0477464
0.048247
0.0488077
0.0494349
0.0501359
0.0509194
0.0517949
0.0527741
0.05387
0.0550982
0.0564768
0.0580271
0.0597744
0.0617491
0.0639872
0.0665342
0.0694447
0.0727895
0.0766606
0.0811845
0.0865324
0.0929371
0.100732
0.110377
0.122527
0.138136
0.158532
0.185709
0.223801
0.274768
0.343444
0.440936
0.541999
0.737821
0.0468664
0.0468983
0.0469314
0.0469666
0.0470043
0.0470418
0.0470936
0.0471483
0.0472017
0.0472524
0.0473018
0.0473523
0.0474061
0.0474647
0.0475295
0.0476012
0.0476802
0.0477664
0.0478602
0.0479628
0.0480765
0.0482028
0.0483429
0.0484975
0.0486674
0.0488542
0.0490601
0.0492879
0.049541
0.049823
0.0501378
0.0504895
0.0508824
0.0513212
0.0518109
0.0523572
0.0529662
0.0536453
0.0544026
0.0552476
0.056191
0.0572455
0.0584256
0.0597482
0.0612329
0.0629027
0.0647852
0.0669127
0.0693255
0.0720713
0.0752129
0.0788244
0.0830103
0.0878879
0.0936587
0.100587
0.109017
0.119478
0.13264
0.149549
0.171671
0.201089
0.241876
0.297082
0.370926
0.466701
0.595158
0.751094
0.914879
0.0511772
0.0512273
0.0512776
0.0513296
0.0513829
0.0514373
0.0514963
0.0515598
0.051627
0.051697
0.0517696
0.0518451
0.0519246
0.0520093
0.0521006
0.0521995
0.0523072
0.0524244
0.0525519
0.0526904
0.0528414
0.0530065
0.0531873
0.0533854
0.0536026
0.0538408
0.0541025
0.0543905
0.0547081
0.0550592
0.0554479
0.0558788
0.0563572
0.056889
0.0574808
0.0581399
0.0588745
0.0596942
0.0606096
0.0616328
0.062778
0.064061
0.0655004
0.0671177
0.0689384
0.0709923
0.0733159
0.075953
0.0789593
0.0824005
0.0863693
0.0909702
0.0963598
0.102719
0.110362
0.11971
0.131278
0.145933
0.164644
0.189287
0.221916
0.266564
0.327253
0.407321
0.508408
0.644307
0.813495
0.979892
1.07282
0.056825
0.0569017
0.0569781
0.0570556
0.0571339
0.0572131
0.0572947
0.0573796
0.0574682
0.057561
0.057658
0.0577597
0.0578665
0.0579794
0.0580992
0.0582271
0.0583642
0.0585116
0.0586704
0.0588419
0.0590275
0.0592288
0.0594479
0.0596869
0.0599481
0.0602343
0.0605486
0.0608945
0.0612761
0.0616981
0.0621657
0.0626847
0.0632621
0.0639052
0.0646226
0.0654238
0.0663196
0.0673219
0.0684444
0.0697029
0.071115
0.0727017
0.0744869
0.0764992
0.0787728
0.081349
0.0842786
0.0876241
0.0914679
0.0959042
0.10108
0.107144
0.114348
0.123001
0.133594
0.146822
0.163424
0.184962
0.212908
0.250356
0.300194
0.368001
0.456294
0.56574
0.707885
0.890689
1.06842
1.17491
1.16941
0.064331
0.0644388
0.0645447
0.06465
0.0647545
0.0648588
0.0649637
0.0650702
0.0651792
0.0652914
0.0654075
0.0655283
0.0656545
0.065787
0.0659268
0.0660751
0.0662332
0.0664026
0.0665848
0.0667815
0.0669949
0.067227
0.0674805
0.0677583
0.0680637
0.0684003
0.0687722
0.0691843
0.0696417
0.0701504
0.0707172
0.0713496
0.0720562
0.0728466
0.0737317
0.0747234
0.0758357
0.0770839
0.0784861
0.0800626
0.0818372
0.0838381
0.0860986
0.0886586
0.0915674
0.0948854
0.0986885
0.103072
0.108163
0.114104
0.121145
0.129492
0.1396
0.152031
0.16746
0.187238
0.2123
0.245761
0.289016
0.346989
0.423243
0.522651
0.643239
0.79296
0.988513
1.17458
1.27405
1.26447
1.2026
0.0743205
0.074441
0.0745618
0.0746836
0.0748047
0.0749229
0.0750397
0.0751566
0.0752747
0.0753955
0.0755199
0.0756494
0.0757851
0.0759281
0.0760796
0.0762412
0.0764147
0.0766019
0.0768052
0.0770269
0.0772697
0.0775369
0.0778317
0.078158
0.0785202
0.0789232
0.0793723
0.0798737
0.0804342
0.0810613
0.0817638
0.0825514
0.0834352
0.0844276
0.0855427
0.0867965
0.0882073
0.089796
0.091587
0.0936089
0.0958957
0.0984878
0.101435
0.104797
0.10865
0.113089
0.118233
0.124238
0.13131
0.139677
0.149784
0.161922
0.177023
0.196037
0.219792
0.251358
0.290772
0.34462
0.411094
0.500827
0.612575
0.748676
0.907686
1.11629
1.298
1.38413
1.36277
1.3009
1.00861
0.0875563
0.0876497
0.0877473
0.0878493
0.0879548
0.0880635
0.0881758
0.0882924
0.0884139
0.0885414
0.0886759
0.0888186
0.0889701
0.0891291
0.0892981
0.08948
0.0896774
0.0898932
0.0901302
0.0903917
0.0906812
0.091003
0.0913613
0.0917615
0.092209
0.0927104
0.0932726
0.0939037
0.0946124
0.0954089
0.0963048
0.0973134
0.0984493
0.0997296
0.101174
0.102804
0.104647
0.106731
0.109094
0.111779
0.114837
0.118331
0.122344
0.126966
0.132333
0.138593
0.145956
0.154685
0.165131
0.177685
0.193211
0.212249
0.23649
0.267654
0.305996
0.358653
0.420806
0.50655
0.606345
0.739997
0.891308
1.06576
1.28161
1.42892
1.49116
1.46954
1.37122
1.05158
0.774976
0.105183
0.10524
0.105304
0.105376
0.105456
0.105543
0.105639
0.105744
0.105859
0.105985
0.106124
0.106276
0.106444
0.106629
0.106833
0.107058
0.107308
0.107584
0.107887
0.108222
0.108594
0.109009
0.109472
0.109991
0.110573
0.111228
0.111963
0.112792
0.113725
0.114778
0.115966
0.117307
0.118824
0.120542
0.122489
0.124699
0.127212
0.130075
0.133346
0.137096
0.141415
0.146406
0.152221
0.158994
0.167012
0.176483
0.187824
0.201555
0.218237
0.238771
0.264894
0.297066
0.338509
0.391219
0.454295
0.540501
0.6373
0.764405
0.917097
1.08592
1.29408
1.46491
1.56021
1.59233
1.56894
1.43732
1.05231
0.791223
0.63986
0.129181
0.129216
0.129264
0.129324
0.129397
0.129482
0.129581
0.129695
0.129824
0.129972
0.130138
0.130327
0.130538
0.130777
0.131044
0.131344
0.131679
0.132055
0.132474
0.132938
0.133452
0.134025
0.134664
0.135381
0.136185
0.137089
0.138107
0.139255
0.140551
0.142016
0.143675
0.145557
0.147696
0.150131
0.15291
0.15609
0.159739
0.163942
0.168801
0.174446
0.181043
0.188772
0.197973
0.208786
0.222023
0.237715
0.257079
0.280989
0.310211
0.347303
0.393849
0.450187
0.521985
0.607803
0.711281
0.841723
0.989769
1.16877
1.37779
1.5479
1.63613
1.67331
1.66642
1.63857
1.46986
1.06578
0.863027
0.735202
0.623345
0.163633
0.16369
0.163766
0.163862
0.163977
0.164112
0.164268
0.164446
0.164649
0.164878
0.165136
0.165425
0.16575
0.166112
0.166516
0.166966
0.167468
0.168026
0.168642
0.169326
0.170087
0.170935
0.171883
0.172944
0.174133
0.17547
0.176974
0.178673
0.180596
0.182779
0.185265
0.188105
0.191358
0.195098
0.199414
0.204414
0.210233
0.217048
0.225055
0.234543
0.245847
0.259305
0.275835
0.295198
0.32018
0.348883
0.386259
0.431701
0.485893
0.555997
0.636977
0.732599
0.849099
0.981905
1.1409
1.33368
1.54248
1.71121
1.77601
1.77671
1.76067
1.7296
1.67213
1.44893
1.03478
0.897631
0.817502
0.701616
0.595512
0.218062
0.21823
0.218426
0.218652
0.218908
0.219194
0.219511
0.219862
0.220249
0.220675
0.221144
0.221658
0.222224
0.222842
0.223517
0.224257
0.225072
0.225972
0.226967
0.228071
0.229296
0.230658
0.232175
0.233869
0.235765
0.237894
0.2403
0.243036
0.246163
0.249755
0.2539
0.258704
0.264297
0.270841
0.278527
0.28761
0.298376
0.31126
0.326668
0.345323
0.367934
0.395163
0.429441
0.468686
0.521667
0.578195
0.65567
0.740537
0.838955
0.965044
1.08498
1.23362
1.41112
1.60663
1.84314
1.9536
1.9807
1.95469
1.89818
1.82599
1.70992
1.55421
1.26306
0.923302
0.843676
0.867202
0.88678
0.803447
0.67474
0.32009
0.320509
0.320976
0.321492
0.322052
0.322652
0.323294
0.323983
0.324723
0.32552
0.326378
0.327306
0.328309
0.329399
0.330583
0.331875
0.333288
0.334836
0.336538
0.33841
0.340482
0.342768
0.345303
0.348137
0.351331
0.354964
0.359225
0.364254
0.3702
0.377247
0.385611
0.395566
0.407426
0.421625
0.438612
0.459086
0.483697
0.513519
0.549491
0.59308
0.64587
0.70861
0.78591
0.872528
0.982168
1.09348
1.23631
1.37515
1.52835
1.71353
1.82675
2.08528
2.26204
2.29375
2.25485
2.18388
2.09552
1.92592
1.65733
1.38493
1.11209
0.875486
0.744138
0.697555
0.898765
1.07547
1.12707
1.03016
0.854983
0.560615
0.561614
0.562674
0.563801
0.564995
0.56626
0.567598
0.569016
0.570515
0.572106
0.573794
0.575596
0.57752
0.579594
0.581828
0.584257
0.586894
0.589768
0.592935
0.596357
0.600235
0.604371
0.609103
0.614716
0.621392
0.630072
0.640993
0.654512
0.671073
0.691185
0.715446
0.744609
0.779428
0.821072
0.870411
0.929057
0.998237
1.07909
1.17431
1.28256
1.40901
1.54712
1.70283
1.86878
2.03981
2.22298
2.38649
2.55893
2.68789
2.81981
2.88585
2.80974
2.66058
2.4803
2.26786
1.97118
1.58872
1.27093
0.95353
0.706959
0.626796
0.598924
0.592058
0.695756
1.01622
1.39515
1.55897
1.55645
1.33411
1.45508
1.45706
1.45918
1.46146
1.46385
1.46638
1.46898
1.47174
1.47446
1.4774
1.48031
1.4834
1.48654
1.49002
1.49371
1.49787
1.50235
1.50723
1.51301
1.51833
1.52665
1.53145
1.54596
1.57055
1.60558
1.65061
1.70593
1.77183
1.84871
1.93683
2.0366
2.14817
2.27174
2.40724
2.5542
2.71257
2.88058
3.05703
3.23918
3.42309
3.60629
3.77926
3.94154
4.07738
4.18389
4.2517
4.24333
4.18785
4.05845
3.81319
3.41961
2.86585
2.35667
1.9178
1.65443
1.55308
1.32023
1.11423
1.0511
0.955927
0.90744
0.894211
0.920966
1.03199
1.28199
1.94762
2.54049
2.80467
2.8741
8.55542
8.54645
8.5373
8.52929
8.51933
8.50865
8.49917
8.48741
8.47238
8.46324
8.44631
8.4279
8.40436
8.37929
8.36007
8.33586
8.31822
8.29273
8.27323
8.24541
8.22274
8.19224
8.16073
8.12804
8.09396
8.05831
8.02089
7.98152
7.93997
7.89602
7.8494
7.79984
7.74701
7.69056
7.63012
7.56526
7.49556
7.42061
7.34011
7.25377
7.16187
7.06475
6.96436
6.86265
6.76236
6.67263
6.60265
6.55303
6.51394
6.47693
6.44029
6.40398
6.36821
6.33315
6.29899
6.26574
6.2332
6.20132
6.17025
6.14011
6.11101
6.08309
6.05641
6.03109
6.00714
5.98474
5.96511
5.95222
5.93939
0.0297497
0.0297446
0.0297352
0.0297227
0.029713
0.0296971
0.0296833
0.0296659
0.0296563
0.0296451
0.0296244
0.0296206
0.0296205
0.0296264
0.0296033
0.0295761
0.0295803
0.0295802
0.0295619
0.0295387
0.0295547
0.029574
0.0295422
0.0295357
0.0295069
0.0294806
0.0295007
0.0295094
0.0295168
0.0295091
0.0295038
0.0295066
0.0295104
0.029486
0.029475
0.0294486
0.0294387
0.0294275
0.0294136
0.0294071
0.0293727
0.029368
0.0293524
0.0293232
0.0293185
0.0292961
0.0292624
0.0292455
0.0292297
0.0292058
0.0291771
0.0291599
0.0291535
0.0291524
0.0291551
0.0291607
0.0291586
0.02915
0.0291388
0.0300701
0.0300598
0.0300432
0.0300285
0.0300125
0.0299951
0.0299797
0.0299648
0.0299541
0.0299409
0.0299266
0.029921
0.0299084
0.029891
0.0298566
0.0298452
0.0298464
0.0298412
0.0298128
0.0298077
0.0298207
0.0298219
0.0297863
0.0297799
0.0297418
0.0297259
0.0297424
0.0297542
0.0297511
0.029739
0.0297403
0.0297418
0.0297409
0.0297181
0.0297081
0.0296885
0.0296704
0.0296587
0.0296488
0.0296389
0.0296178
0.0296031
0.029589
0.0295684
0.0295542
0.0295413
0.0295198
0.0294972
0.0294825
0.0294644
0.0294408
0.0294176
0.0293996
0.0293866
0.029383
0.0293833
0.0293833
0.0293893
0.0293903
0.0304379
0.0304237
0.0304048
0.0303886
0.030371
0.0303545
0.030339
0.0303239
0.030309
0.0302915
0.0302736
0.0302553
0.0302297
0.0302033
0.0301797
0.0301794
0.0301692
0.0301487
0.0301255
0.0301271
0.0301338
0.030122
0.0300823
0.030072
0.0300303
0.0300214
0.0300346
0.0300465
0.0300349
0.0300207
0.0300261
0.0300246
0.0300202
0.0300006
0.0299888
0.029973
0.0299544
0.0299387
0.0299282
0.0299196
0.0299061
0.0298902
0.0298739
0.0298579
0.0298408
0.0298301
0.0298165
0.0297974
0.0297809
0.0297664
0.0297498
0.0297297
0.0297107
0.0296922
0.0296777
0.0296704
0.0296724
0.0296744
0.0296751
0.0308704
0.0308549
0.0308348
0.0308173
0.0307984
0.0307801
0.030761
0.0307407
0.0307188
0.0306946
0.0306693
0.0306422
0.030614
0.030591
0.0305746
0.0305673
0.0305429
0.0305185
0.030503
0.0305056
0.0305049
0.0304761
0.0304354
0.030419
0.0303771
0.0303742
0.0303838
0.0303924
0.0303744
0.0303591
0.0303655
0.0303612
0.0303545
0.0303369
0.0303249
0.0303105
0.030293
0.0302759
0.0302624
0.0302541
0.030244
0.0302312
0.030217
0.0302022
0.0301853
0.0301713
0.0301637
0.0301528
0.0301369
0.0301197
0.0301061
0.0300923
0.030078
0.0300622
0.0300466
0.0300325
0.0300276
0.0300214
0.0300264
0.0313824
0.0313648
0.0313418
0.0313208
0.0312977
0.0312739
0.0312484
0.0312212
0.0311924
0.0311625
0.0311323
0.0311029
0.0310763
0.0310548
0.0310361
0.0310163
0.0309859
0.0309655
0.0309561
0.0309536
0.0309364
0.0308939
0.0308537
0.030831
0.0307913
0.0307917
0.0307971
0.0308012
0.0307781
0.0307623
0.0307675
0.0307607
0.0307523
0.0307361
0.0307241
0.0307106
0.030694
0.0306771
0.0306627
0.0306533
0.0306451
0.0306348
0.0306229
0.0306114
0.0305987
0.0305839
0.0305688
0.0305646
0.0305585
0.0305494
0.0305337
0.0305161
0.0305022
0.0304907
0.030479
0.030469
0.0304569
0.0304537
0.0304504
0.0319831
0.0319615
0.0319333
0.0319069
0.0318777
0.0318476
0.0318158
0.031783
0.0317495
0.0317162
0.0316841
0.0316539
0.0316265
0.0316012
0.0315752
0.0315472
0.0315181
0.0315018
0.0314906
0.031475
0.0314401
0.0313895
0.0313497
0.0313213
0.031285
0.0312853
0.0312874
0.0312859
0.0312584
0.0312419
0.0312448
0.0312358
0.0312257
0.0312104
0.0311984
0.0311857
0.0311703
0.031154
0.0311395
0.0311295
0.0311223
0.0311144
0.0311051
0.0310959
0.0310863
0.0310761
0.0310657
0.0310517
0.0310501
0.0310477
0.0310427
0.0310358
0.0310211
0.0310024
0.0309876
0.0309727
0.0309703
0.0309623
0.0309651
0.0326858
0.0326592
0.0326252
0.032593
0.0325582
0.0325227
0.0324861
0.0324492
0.0324125
0.0323766
0.0323419
0.0323088
0.0322769
0.0322453
0.0322133
0.0321823
0.0321554
0.0321371
0.0321156
0.0320831
0.0320337
0.0319794
0.0319388
0.0319059
0.0318732
0.0318731
0.0318699
0.031861
0.0318302
0.0318127
0.0318124
0.0318012
0.0317895
0.0317747
0.0317625
0.0317505
0.0317365
0.0317214
0.0317074
0.0316971
0.0316905
0.0316846
0.0316782
0.0316718
0.0316653
0.031659
0.0316525
0.031645
0.0316388
0.0316378
0.0316374
0.0316369
0.0316349
0.0316302
0.0316234
0.0316049
0.0316001
0.031594
0.0315872
0.0335137
0.0334822
0.0334426
0.0334053
0.0333654
0.0333252
0.0332843
0.0332435
0.0332029
0.033163
0.0331239
0.0330855
0.0330478
0.0330106
0.0329746
0.0329414
0.0329119
0.0328837
0.0328468
0.0327979
0.0327387
0.0326827
0.0326402
0.0326039
0.0325741
0.0325711
0.0325613
0.0325448
0.0325111
0.0324922
0.0324881
0.0324747
0.0324612
0.0324464
0.0324342
0.0324227
0.0324101
0.0323965
0.0323835
0.0323737
0.0323675
0.0323633
0.0323596
0.0323561
0.0323533
0.0323501
0.0323474
0.0323455
0.0323434
0.0323406
0.032339
0.0323384
0.0323296
0.0323289
0.0323398
0.0323411
0.0323404
0.0323303
0.0323339
0.0344975
0.0344612
0.0344161
0.0343735
0.0343285
0.0342832
0.0342372
0.0341912
0.0341453
0.0340997
0.0340546
0.03401
0.0339663
0.0339237
0.0338828
0.0338436
0.0338045
0.0337611
0.0337076
0.0336455
0.0335801
0.0335226
0.0334772
0.0334383
0.0334096
0.0334012
0.0333837
0.0333594
0.0333232
0.0333022
0.0332936
0.0332779
0.0332626
0.0332475
0.033235
0.0332241
0.0332128
0.033201
0.0331897
0.0331808
0.0331755
0.0331735
0.0331721
0.033173
0.0331701
0.0331766
0.0331784
0.0331743
0.0331727
0.0331739
0.0331765
0.033179
0.0331808
0.03318
0.0331958
0.0332001
0.0332013
0.0331942
0.0332091
0.0356733
0.0356318
0.0355807
0.0355321
0.0354809
0.0354294
0.0353769
0.0353243
0.0352715
0.0352188
0.0351665
0.0351147
0.0350636
0.0350133
0.0349634
0.0349127
0.0348587
0.0347983
0.0347299
0.0346578
0.0345879
0.034528
0.0344789
0.0344372
0.0344072
0.0343909
0.0343646
0.0343325
0.0342938
0.0342699
0.0342565
0.0342382
0.0342208
0.034205
0.0341922
0.0341817
0.0341719
0.0341621
0.0341529
0.0341458
0.0341423
0.0341377
0.0341442
0.0341397
0.0341403
0.0341451
0.0341512
0.0341611
0.0341733
0.0341676
0.0341664
0.0341753
0.0341814
0.034196
0.0342047
0.0342263
0.0342307
0.0342203
0.0342233
0.0370852
0.0370377
0.0369793
0.0369235
0.0368648
0.0368054
0.0367449
0.0366838
0.0366223
0.0365606
0.0364989
0.0364372
0.0363754
0.0363131
0.0362493
0.0361827
0.0361114
0.0360347
0.0359538
0.0358737
0.0357995
0.0357356
0.0356815
0.0356358
0.0356012
0.0355749
0.035539
0.0354991
0.0354575
0.0354298
0.0354109
0.0353897
0.0353701
0.0353532
0.03534
0.0353299
0.0353214
0.0353139
0.0353072
0.0353024
0.0352975
0.0353026
0.0352981
0.0353118
0.0353076
0.0353102
0.035319
0.0353283
0.035362
0.0353699
0.0353634
0.0353659
0.035376
0.0353883
0.0354054
0.0354189
0.0354384
0.0354492
0.0354614
0.0387894
0.0387344
0.0386672
0.0386022
0.0385339
0.0384644
0.0383934
0.0383212
0.0382481
0.0381741
0.0380994
0.0380237
0.0379468
0.037868
0.0377866
0.0377017
0.0376131
0.0375214
0.0374295
0.0373417
0.0372615
0.0371915
0.0371307
0.0370786
0.0370359
0.0369974
0.0369511
0.0369034
0.0368579
0.0368255
0.0368006
0.0367758
0.0367539
0.0367354
0.0367216
0.0367119
0.0367049
0.0366997
0.0366962
0.0366947
0.0366961
0.0366917
0.0367059
0.0367052
0.0367277
0.0367248
0.0367304
0.0367372
0.0367713
0.0367865
0.0367929
0.036799
0.0368098
0.0368225
0.0368384
0.0368534
0.0368697
0.0368807
0.0369023
0.0408594
0.0407946
0.0407161
0.0406389
0.040558
0.040475
0.0403897
0.0403026
0.0402137
0.040123
0.0400307
0.0399365
0.0398401
0.0397414
0.0396399
0.0395358
0.0394298
0.0393236
0.0392203
0.039123
0.0390342
0.038955
0.0388847
0.0388227
0.0387682
0.0387156
0.0386579
0.0386019
0.0385514
0.0385131
0.0384814
0.0384524
0.0384277
0.0384075
0.0383929
0.0383835
0.0383781
0.038376
0.0383757
0.0383787
0.0383757
0.03839
0.038393
0.0383984
0.0384131
0.0384347
0.0384454
0.0384505
0.0384815
0.0385063
0.0385235
0.0385365
0.03855
0.0385645
0.038581
0.0385983
0.038617
0.0386313
0.0386595
0.0433967
0.0433181
0.0432243
0.0431307
0.0430324
0.042931
0.0428264
0.0427189
0.0426088
0.0424961
0.0423811
0.0422636
0.0421438
0.0420218
0.0418979
0.0417729
0.0416482
0.0415258
0.0414082
0.0412978
0.0411961
0.0411036
0.0410195
0.0409433
0.0408731
0.0408044
0.0407341
0.0406688
0.0406116
0.0405659
0.0405263
0.0404923
0.0404643
0.0404421
0.0404266
0.0404175
0.0404136
0.0404119
0.0404197
0.04042
0.0404286
0.0404394
0.040446
0.040482
0.0404845
0.040512
0.0405336
0.0405451
0.0405705
0.0405997
0.040627
0.0406505
0.0406719
0.0406925
0.0407136
0.0407352
0.0407585
0.0407778
0.0408129
0.0465554
0.0464566
0.0463409
0.0462236
0.0461007
0.0459732
0.0458416
0.0457061
0.0455672
0.0454253
0.0452806
0.0451335
0.0449844
0.044834
0.044683
0.0445327
0.0443847
0.0442409
0.0441033
0.0439735
0.0438526
0.0437407
0.0436372
0.0435413
0.0434511
0.0433636
0.0432785
0.0432024
0.0431361
0.0430809
0.0430322
0.042992
0.0429601
0.0429355
0.042919
0.0429105
0.0429092
0.0429127
0.0429167
0.0429259
0.0429395
0.0429569
0.042971
0.0430026
0.0430229
0.0430517
0.0430862
0.043114
0.0431446
0.0431789
0.0432145
0.0432491
0.043282
0.0433133
0.043344
0.0433746
0.0434061
0.0434338
0.0434787
0.0505975
0.0504661
0.0503166
0.0501627
0.0500017
0.0498346
0.049662
0.0494846
0.0493033
0.0491187
0.0489315
0.0487425
0.0485526
0.0483628
0.0481741
0.0479882
0.0478065
0.0476308
0.0474626
0.0473033
0.0471534
0.047013
0.0468818
0.0467588
0.0466427
0.0465323
0.0464294
0.0463387
0.0462598
0.0461923
0.0461325
0.0460845
0.0460478
0.0460206
0.0460032
0.0459955
0.045995
0.0460017
0.0460133
0.0460294
0.0460502
0.0460758
0.0461036
0.0461392
0.0461744
0.0462122
0.0462566
0.0463007
0.0463452
0.0463915
0.0464394
0.0464879
0.046536
0.0465834
0.04663
0.0466763
0.0467229
0.0467663
0.0468276
0.0559738
0.0557889
0.0555853
0.0553731
0.055151
0.0549204
0.0546819
0.0544369
0.0541868
0.0539328
0.0536765
0.0534192
0.0531624
0.0529076
0.0526566
0.052411
0.0521725
0.0519428
0.0517232
0.0515148
0.0513182
0.0511334
0.0509602
0.0507981
0.0506464
0.0505053
0.0503786
0.0502668
0.0501693
0.050085
0.0500107
0.0499527
0.04991
0.0498798
0.049862
0.0498564
0.0498591
0.0498713
0.0498921
0.0499193
0.0499525
0.0499911
0.0500358
0.0500861
0.0501402
0.0501969
0.0502589
0.0503236
0.05039
0.0504581
0.0505278
0.0505989
0.0506708
0.050743
0.0508153
0.0508879
0.0509608
0.0510319
0.0511199
0.0633063
0.0630406
0.0627659
0.06248
0.062177
0.0618582
0.0615252
0.0611804
0.0608261
0.0604646
0.0600986
0.0597308
0.059364
0.0590011
0.0586431
0.0582928
0.0579526
0.0576247
0.057311
0.057013
0.0567316
0.0564675
0.0562208
0.0559918
0.0557809
0.0555904
0.0554216
0.0552728
0.0551436
0.0550324
0.0549363
0.0548633
0.0548124
0.0547793