/*--------------------------------*- C++ -*----------------------------------*\
| =========                 |                                                 |
| \\      /  F ield         | OpenFOAM: The Open Source CFD Toolbox           |
|  \\    /   O peration     | Version:  2312                                  |
|   \\  /    A nd           | Website:  www.openfoam.com                      |
|    \\/     M anipulation  |                                                 |
\*---------------------------------------------------------------------------*/
FoamFile
{
    version     2.0;
    format      ascii;
    arch        "LSB;label=32;scalar=64";
    class       volScalarField;
    location    "700";
    object      p;
}
// * * * * * * * * * * * * * * * * * * * * * * * * * * * * * * * * * * * * * //

dimensions      [0 2 -2 0 0 0 0];

internalField   nonuniform List<scalar> 
76025
(
0.000127807
0.000119472
0.000111037
0.000102521
9.40049e-05
8.54678e-05
7.64693e-05
6.7691e-05
5.87076e-05
4.98126e-05
4.08655e-05
3.18504e-05
2.2753e-05
1.3689e-05
4.56303e-06
-4.70325e-06
-1.37045e-05
-2.29645e-05
-3.20565e-05
-4.12048e-05
-5.01922e-05
-5.9312e-05
-6.82656e-05
-7.70586e-05
-8.58709e-05
-9.45264e-05
-0.000103114
-0.000111756
-0.000120022
-0.000128426
-0.00013637
-0.00014429
-0.000151981
-0.000159644
-0.000166921
-0.000174072
-0.000180846
-0.000187817
-0.000194512
-0.000200748
-0.000206609
-0.000212297
-0.000218046
-0.000223307
-0.000228052
-0.0002325
-0.000236767
-0.000240658
-0.000243793
-0.00024663
-0.000249103
-0.000251003
-0.000252407
-0.000253183
-0.000253153
-0.000252064
-0.000250591
-0.000247986
-0.000244514
-0.000240008
-0.000234069
-0.000226756
-0.000217531
-0.000206847
-0.000194105
-0.000178686
-0.000162144
-0.00014312
-0.000118406
0.000128767
0.00012008
0.000111318
0.000102432
9.34392e-05
8.43297e-05
7.51645e-05
6.59409e-05
5.66481e-05
4.73021e-05
3.7903e-05
2.84589e-05
1.89883e-05
9.47982e-06
-2.36665e-08
-9.51967e-06
-1.90383e-05
-2.85284e-05
-3.80333e-05
-4.74563e-05
-5.68643e-05
-6.61957e-05
-7.54441e-05
-8.45841e-05
-9.36626e-05
-0.000102669
-0.000111572
-0.000120289
-0.000128864
-0.000137334
-0.000145608
-0.000153813
-0.000161809
-0.000169568
-0.000177135
-0.00018446
-0.000191618
-0.000198605
-0.000205321
-0.000211782
-0.000217927
-0.000223848
-0.000229507
-0.000234778
-0.000239728
-0.000244341
-0.000248634
-0.000252471
-0.000255857
-0.000258859
-0.000261429
-0.000263451
-0.000264901
-0.000265712
-0.000265778
-0.000265041
-0.000263586
-0.000261137
-0.000257683
-0.000253102
-0.000247187
-0.00023981
-0.000230683
-0.000219819
-0.000206942
-0.000191809
-0.00017463
-0.00015462
-0.000131185
0.00012955
0.000120466
0.000111286
0.000101959
9.25146e-05
8.30049e-05
7.34273e-05
6.3774e-05
5.40527e-05
4.42694e-05
3.44429e-05
2.45881e-05
1.4706e-05
4.80862e-06
-5.08348e-06
-1.49858e-05
-2.48778e-05
-3.47504e-05
-4.45912e-05
-5.43862e-05
-6.4121e-05
-7.37795e-05
-8.33586e-05
-9.28444e-05
-0.000102238
-0.000111528
-0.000120676
-0.000129675
-0.000138537
-0.000147248
-0.000155809
-0.000164205
-0.000172391
-0.000180359
-0.000188118
-0.00019566
-0.000202991
-0.000210099
-0.000216973
-0.00022359
-0.000229917
-0.000235962
-0.000241718
-0.000247162
-0.000252274
-0.000257032
-0.000261426
-0.000265422
-0.000268997
-0.000272133
-0.000274804
-0.000276951
-0.000278527
-0.000279476
-0.000279723
-0.000279194
-0.000277858
-0.000275588
-0.000272285
-0.000267825
-0.000262042
-0.000254791
-0.000245864
-0.000235136
-0.00022242
-0.000207515
-0.000190254
-0.000170183
-0.000146953
0.000130098
0.000120572
0.000110942
0.000101163
9.12775e-05
8.13165e-05
7.12829e-05
6.1179e-05
5.10141e-05
4.07983e-05
3.05432e-05
2.02592e-05
9.95432e-06
-3.61366e-07
-1.06766e-05
-2.09853e-05
-3.1274e-05
-4.15323e-05
-5.17474e-05
-6.19075e-05
-7.19986e-05
-8.20105e-05
-9.19321e-05
-0.00010175
-0.000111454
-0.000121034
-0.000130474
-0.000139767
-0.000148903
-0.000157872
-0.000166666
-0.000175269
-0.000183666
-0.000191847
-0.000199806
-0.000207546
-0.000215059
-0.00022234
-0.000229375
-0.000236146
-0.000242634
-0.000248833
-0.000254738
-0.000260329
-0.000265585
-0.000270489
-0.000275028
-0.000279177
-0.00028291
-0.000286203
-0.000289028
-0.000291342
-0.000293094
-0.000294231
-0.000294686
-0.000294389
-0.000293275
-0.000291244
-0.000288184
-0.000283969
-0.00027846
-0.000271503
-0.00026293
-0.000252581
-0.000240278
-0.000225821
-0.000208933
-0.000189309
-0.000166651
0.000130384
0.000120393
0.000110296
0.000100047
8.96891e-05
7.9253e-05
6.87474e-05
5.81764e-05
4.75479e-05
3.68725e-05
2.61613e-05
1.54246e-05
4.67254e-06
-6.08417e-06
-1.68341e-05
-2.75661e-05
-3.82691e-05
-4.89309e-05
-5.95393e-05
-7.00818e-05
-8.0546e-05
-9.09196e-05
-0.00010119
-0.000111344
-0.000121372
-0.000131262
-0.000141004
-0.000150584
-0.000159994
-0.000169222
-0.000178258
-0.000187093
-0.000195713
-0.000204106
-0.000212271
-0.000220207
-0.000227907
-0.000235363
-0.000242563
-0.000249494
-0.000256144
-0.000262503
-0.000268561
-0.000274303
-0.000279714
-0.000284778
-0.000289479
-0.000293795
-0.000297704
-0.00030118
-0.000304194
-0.000306708
-0.000308677
-0.000310047
-0.000310759
-0.000310743
-0.000309923
-0.000308208
-0.000305491
-0.000301655
-0.000296572
-0.000290098
-0.000282084
-0.000272355
-0.000260738
-0.000247015
-0.000230867
-0.000212064
-0.000190114
0.000130379
0.000119893
0.0001093
9.85506e-05
8.76914e-05
7.67556e-05
6.57533e-05
5.46887e-05
4.357e-05
3.24084e-05
2.12157e-05
1.00036e-05
-1.21673e-06
-1.24336e-05
-2.36352e-05
-3.48095e-05
-4.59448e-05
-5.70281e-05
-6.80468e-05
-7.8988e-05
-8.98387e-05
-0.000100586
-0.000111216
-0.000121718
-0.00013208
-0.00014229
-0.000152337
-0.00016221
-0.000171897
-0.000181389
-0.000190675
-0.000199745
-0.000208588
-0.000217194
-0.000225563
-0.000233694
-0.000241581
-0.000249213
-0.000256582
-0.000263679
-0.000270492
-0.000277012
-0.000283229
-0.000289132
-0.000294706
-0.000299938
-0.000304813
-0.000309312
-0.000313414
-0.000317096
-0.000320329
-0.000323079
-0.000325303
-0.000326954
-0.000327973
-0.000328295
-0.000327845
-0.00032654
-0.000324284
-0.000320972
-0.000316489
-0.000310702
-0.000303473
-0.000294623
-0.000283989
-0.000271318
-0.000256309
-0.000238802
-0.000218029
0.000130023
0.000119011
0.000107891
9.66109e-05
8.52207e-05
7.37561e-05
6.22276e-05
5.06405e-05
3.90038e-05
2.73299e-05
1.56312e-05
3.92026e-06
-7.79049e-06
-1.94885e-05
-3.11611e-05
-4.27962e-05
-5.43812e-05
-6.59027e-05
-7.73475e-05
-8.87021e-05
-9.99522e-05
-0.000111085
-0.000122086
-0.000132945
-0.000143649
-0.000154186
-0.000164544
-0.000174713
-0.000184681
-0.000194438
-0.000203975
-0.000213282
-0.000222348
-0.000231166
-0.000239738
-0.000248064
-0.000256136
-0.000263945
-0.000271485
-0.000278747
-0.000285724
-0.000292407
-0.000298787
-0.000304855
-0.0003106
-0.000316009
-0.000321071
-0.000325767
-0.000330082
-0.000333992
-0.000337472
-0.00034049
-0.00034301
-0.000344986
-0.000346366
-0.000347092
-0.000347097
-0.000346309
-0.000344645
-0.000342015
-0.000338316
-0.000333428
-0.000327224
-0.00031953
-0.00031019
-0.000298925
-0.000285503
-0.000269785
-0.000250575
0.000129253
0.000117682
0.000106005
9.4163e-05
8.22115e-05
7.01877e-05
5.81034e-05
4.5965e-05
3.37821e-05
2.15675e-05
9.33536e-06
-2.90067e-06
-1.51268e-05
-2.73294e-05
-3.94948e-05
-5.16102e-05
-6.36629e-05
-7.56394e-05
-8.7526e-05
-9.93081e-05
-0.000110971
-0.0001225
-0.000133884
-0.000145108
-0.00015616
-0.000167029
-0.000177703
-0.00018817
-0.00019842
-0.000208444
-0.000218232
-0.000227774
-0.000237061
-0.000246089
-0.000254863
-0.00026338
-0.000271633
-0.000279617
-0.000287326
-0.000294753
-0.000301892
-0.000308738
-0.000315282
-0.000321519
-0.000327439
-0.000333034
-0.000338292
-0.0003432
-0.000347743
-0.000351902
-0.000355654
-0.000358973
-0.000361826
-0.000364173
-0.000365973
-0.000367176
-0.000367729
-0.000367573
-0.000366639
-0.000364854
-0.000362128
-0.000358356
-0.000353424
-0.00034717
-0.000339449
-0.000329991
-0.000318667
-0.0003052
-0.000288075
0.000127991
0.000115828
0.00010356
9.11246e-05
7.85793e-05
6.59643e-05
5.32932e-05
4.05731e-05
2.78146e-05
1.50315e-05
2.23904e-06
-1.05489e-05
-2.33167e-05
-3.60491e-05
-4.87313e-05
-6.13489e-05
-7.38886e-05
-8.63373e-05
-9.86809e-05
-0.000110905
-0.000122993
-0.00013493
-0.000146704
-0.000158301
-0.000169708
-0.000180913
-0.000191904
-0.000202671
-0.000213204
-0.000223492
-0.000233527
-0.000243301
-0.000252806
-0.000262039
-0.000271009
-0.000279711
-0.000288141
-0.000296294
-0.000304165
-0.000311753
-0.000319051
-0.000326056
-0.000332765
-0.000339171
-0.00034527
-0.000351054
-0.000356516
-0.000361646
-0.000366431
-0.000370856
-0.000374904
-0.000378552
-0.000381775
-0.000384544
-0.000386825
-0.000388585
-0.000389784
-0.000390376
-0.000390312
-0.00038953
-0.000387961
-0.000385518
-0.000382101
-0.000377569
-0.000371799
-0.000364583
-0.000355857
-0.000345165
-0.000331277
0.00012615
0.000113358
0.000100463
8.7397e-05
7.42226e-05
6.09831e-05
4.76927e-05
3.43593e-05
2.0995e-05
7.61456e-06
-5.76704e-06
-1.91337e-05
-3.24685e-05
-4.57554e-05
-5.89789e-05
-7.21225e-05
-8.51715e-05
-9.81117e-05
-0.000110929
-0.000123607
-0.000136131
-0.000148486
-0.000160658
-0.000172633
-0.000184398
-0.000195941
-0.000207251
-0.000218317
-0.000229128
-0.000239677
-0.000249955
-0.000259954
-0.000269667
-0.000279099
-0.000288256
-0.000297134
-0.000305731
-0.000314044
-0.00032207
-0.00032981
-0.00033726
-0.00034442
-0.000351287
-0.00035786
-0.000364137
-0.000370112
-0.000375782
-0.000381139
-0.000386177
-0.000390883
-0.000395246
-0.000399251
-0.000402882
-0.000406122
-0.00040895
-0.000411346
-0.000413284
-0.000414736
-0.000415668
-0.000416039
-0.000415799
-0.000414883
-0.000413211
-0.00041068
-0.000407192
-0.00040262
-0.000396802
-0.00038921
-0.000378888
0.000123623
0.000110163
9.66019e-05
8.2867e-05
6.90263e-05
5.51259e-05
4.1181e-05
2.72008e-05
1.31978e-05
-8.11503e-07
-1.48101e-05
-2.87807e-05
-4.27071e-05
-5.65726e-05
-7.036e-05
-8.40519e-05
-9.7632e-05
-0.000111085
-0.000124393
-0.000137541
-0.000150514
-0.000163295
-0.000175871
-0.000188228
-0.000200353
-0.000212234
-0.00022386
-0.00023522
-0.000246305
-0.000257107
-0.000267618
-0.000277831
-0.000287744
-0.000297363
-0.000306694
-0.000315736
-0.000324486
-0.000332945
-0.000341114
-0.000348994
-0.000356585
-0.000363888
-0.000370906
-0.000377639
-0.000384087
-0.000390249
-0.000396125
-0.000401712
-0.000407007
-0.000412005
-0.000416701
-0.000421091
-0.000425169
-0.000428928
-0.000432361
-0.000435462
-0.000438221
-0.000440626
-0.000442664
-0.000444316
-0.000445554
-0.000446345
-0.000446635
-0.000446382
-0.000445507
-0.000443905
-0.000441152
-0.000436962
-0.000430249
0.000120285
0.000106115
9.18484e-05
7.74053e-05
6.28583e-05
4.82568e-05
3.36181e-05
1.89527e-05
4.27544e-06
-1.03951e-05
-2.50415e-05
-3.96464e-05
-5.41921e-05
-6.86608e-05
-8.30339e-05
-9.72946e-05
-0.000111426
-0.000125408
-0.000139223
-0.000152855
-0.000166286
-0.000179501
-0.000192486
-0.000205228
-0.000217713
-0.00022993
-0.000241867
-0.000253514
-0.000264863
-0.000275906
-0.000286637
-0.00029705
-0.000307146
-0.000316936
-0.000326425
-0.000335612
-0.000344498
-0.000353085
-0.000361379
-0.00036938
-0.000377095
-0.000384527
-0.00039168
-0.000398559
-0.000405166
-0.000411505
-0.00041758
-0.000423393
-0.000428948
-0.000434246
-0.000439293
-0.000444091
-0.000448645
-0.000452961
-0.000457044
-0.000460901
-0.000464539
-0.000467967
-0.000471192
-0.000474221
-0.000477056
-0.000479704
-0.000482155
-0.000484437
-0.000486454
-0.000488079
-0.000488772
-0.000488484
-0.000484803
0.000115981
0.000101059
8.60448e-05
7.08529e-05
5.55601e-05
4.02189e-05
2.48487e-05
9.46214e-06
-5.92438e-06
-2.12922e-05
-3.66232e-05
-5.18974e-05
-6.70935e-05
-8.21924e-05
-9.71754e-05
-0.000112026
-0.000126724
-0.000141253
-0.000155592
-0.000169723
-0.000183624
-0.00019728
-0.000210677
-0.000223803
-0.000236645
-0.000249191
-0.000261429
-0.000273352
-0.00028495
-0.000296218
-0.000307151
-0.000317744
-0.000328004
-0.000337944
-0.000347566
-0.000356873
-0.00036587
-0.000374561
-0.000382953
-0.000391052
-0.000398866
-0.000406402
-0.000413667
-0.000420669
-0.000427417
-0.000433918
-0.00044018
-0.000446213
-0.000452026
-0.000457629
-0.000463034
-0.000468253
-0.0004733
-0.000478191
-0.000482945
-0.000487583
-0.00049213
-0.000496615
-0.000501071
-0.000505534
-0.000510045
-0.000514661
-0.000519424
-0.000524404
-0.000529454
-0.000534529
-0.000539307
-0.00054425
-0.000548152
0.000110525
9.4801e-05
7.89944e-05
6.30099e-05
4.69293e-05
3.08093e-05
1.46706e-05
-1.4737e-06
-1.76062e-05
-3.37071e-05
-4.97554e-05
-6.57285e-05
-8.16037e-05
-9.73607e-05
-0.00011298
-0.000128443
-0.00014373
-0.000158822
-0.000173698
-0.000188336
-0.000202716
-0.00021682
-0.000230633
-0.000244143
-0.000257337
-0.000270203
-0.000282731
-0.000294913
-0.000306743
-0.000318214
-0.000329324
-0.000340072
-0.000350469
-0.000360527
-0.000370251
-0.000379645
-0.000388717
-0.000397476
-0.000405931
-0.000414092
-0.000421969
-0.000429575
-0.000436921
-0.00044402
-0.000450883
-0.000457525
-0.000463959
-0.000470198
-0.00047626
-0.00048216
-0.000487916
-0.00049355
-0.000499084
-0.000504545
-0.000509962
-0.000515374
-0.000520822
-0.000526358
-0.000532043
-0.000537948
-0.000544162
-0.000550791
-0.000557918
-0.000565613
-0.000573795
-0.000582665
-0.000592121
-0.000603233
-0.000613964
0.00010369
8.71109e-05
7.04593e-05
5.36307e-05
3.67134e-05
1.97681e-05
2.8172e-06
-1.41251e-05
-3.10407e-05
-4.79084e-05
-6.47054e-05
-8.14079e-05
-9.79923e-05
-0.000114436
-0.000130719
-0.000146817
-0.00016271
-0.000178378
-0.000193799
-0.000208951
-0.000223814
-0.000238368
-0.000252597
-0.000266486
-0.000280023
-0.000293197
-0.000305997
-0.000318418
-0.000330452
-0.000342097
-0.00035335
-0.000364217
-0.000374712
-0.000384845
-0.000394625
-0.000404058
-0.000413158
-0.000421936
-0.000430405
-0.000438581
-0.000446478
-0.000454112
-0.0004615
-0.000468659
-0.000475607
-0.00048236
-0.000488937
-0.000495358
-0.000501643
-0.000507814
-0.000513896
-0.000519916
-0.000525906
-0.0005319
-0.000537942
-0.000544082
-0.000550382
-0.000556915
-0.000563773
-0.000571067
-0.000578929
-0.0005875
-0.000596909
-0.000607312
-0.000618921
-0.000632201
-0.000647259
-0.000664765
-0.000680987
9.51844e-05
7.76943e-05
6.01442e-05
4.24196e-05
2.46148e-05
6.79418e-06
-1.1017e-05
-2.88032e-05
-4.65456e-05
-6.4221e-05
-8.18048e-05
-9.92717e-05
-0.000116597
-0.000133756
-0.000150726
-0.000167482
-0.000184
-0.000200259
-0.000216235
-0.000231906
-0.000247251
-0.00026225
-0.000276885
-0.00029114
-0.000305003
-0.000318461
-0.000331505
-0.00034413
-0.00035633
-0.000368103
-0.00037945
-0.000390383
-0.000400917
-0.000411065
-0.000420838
-0.000430248
-0.000439312
-0.000448046
-0.000456469
-0.000464601
-0.000472461
-0.000480071
-0.000487451
-0.000494623
-0.000501608
-0.000508428
-0.000515106
-0.000521664
-0.000528128
-0.000534526
-0.000540885
-0.000547239
-0.000553626
-0.000560089
-0.000566682
-0.000573469
-0.000580525
-0.000587949
-0.000595858
-0.000604396
-0.000613728
-0.000624059
-0.000635646
-0.000648889
-0.0006643
-0.000682483
-0.000703723
-0.000728182
-0.000754526
8.46203e-05
6.61604e-05
4.76565e-05
2.89818e-05
1.02362e-05
-8.51173e-06
-2.72345e-05
-4.59146e-05
-6.45308e-05
-8.30579e-05
-0.000101469
-0.000119738
-0.000137838
-0.000155742
-0.000173424
-0.000190858
-0.000208018
-0.000224879
-0.000241416
-0.000257606
-0.000273426
-0.000288856
-0.000303877
-0.000318471
-0.000332624
-0.000346326
-0.000359567
-0.000372341
-0.000384646
-0.000396481
-0.000407851
-0.000418776
-0.000429272
-0.000439355
-0.00044904
-0.000458345
-0.000467293
-0.000475904
-0.000484204
-0.000492217
-0.000499968
-0.000507483
-0.000514788
-0.000521907
-0.000528867
-0.000535692
-0.000542408
-0.000549043
-0.000555624
-0.000562181
-0.000568749
-0.000575362
-0.000582065
-0.000588907
-0.000595947
-0.000603257
-0.000610927
-0.000619068
-0.000627819
-0.000637352
-0.000647913
-0.000659843
-0.000673609
-0.00068979
-0.000708984
-0.000731711
-0.000757927
-0.000787245
-0.000816964
7.13931e-05
5.18988e-05
3.23839e-05
1.27046e-05
-7.0339e-06
-2.67589e-05
-4.64408e-05
-6.60598e-05
-8.55922e-05
-0.00010501
-0.000124285
-0.000143386
-0.000162286
-0.000180955
-0.000199364
-0.000217484
-0.000235288
-0.000252746
-0.000269833
-0.000286523
-0.000302792
-0.000318618
-0.000333981
-0.000348863
-0.000363249
-0.000377129
-0.000390494
-0.000403339
-0.000415664
-0.00042747
-0.000438772
-0.000449592
-0.00045995
-0.000469864
-0.000479357
-0.000488453
-0.00049718
-0.000505566
-0.000513643
-0.00052144
-0.00052899
-0.000536322
-0.000543466
-0.000550451
-0.000557306
-0.00056406
-0.000570739
-0.000577373
-0.000583992
-0.000590629
-0.000597318
-0.000604099
-0.000611015
-0.000618119
-0.00062547
-0.000633141
-0.000641226
-0.000649843
-0.000659168
-0.000669453
-0.000681075
-0.000694502
-0.000710279
-0.000728992
-0.000751106
-0.000776772
-0.000805197
-0.000835174
-0.000863479
5.45652e-05
3.39944e-05
1.34351e-05
-7.2782e-06
-2.80374e-05
-4.87654e-05
-6.94291e-05
-9.00059e-05
-0.00011047
-0.00013079
-0.000150935
-0.000170871
-0.000190568
-0.000209994
-0.000229116
-0.000247902
-0.000266322
-0.000284346
-0.000301943
-0.000319087
-0.000335752
-0.000351913
-0.000367549
-0.000382643
-0.000397179
-0.000411146
-0.000424537
-0.000437349
-0.000449583
-0.000461248
-0.000472364
-0.000482956
-0.000493048
-0.000502665
-0.000511835
-0.000520593
-0.000528971
-0.000537009
-0.000544742
-0.00055221
-0.000559448
-0.000566493
-0.000573378
-0.000580137
-0.000586799
-0.000593393
-0.00059995
-0.000606498
-0.000613067
-0.000619691
-0.000626403
-0.000633242
-0.000640249
-0.000647471
-0.000654963
-0.000662792
-0.000671063
-0.000679936
-0.000689656
-0.000700555
-0.00071303
-0.000727532
-0.000744548
-0.000764542
-0.000787611
-0.000813232
-0.000839836
-0.000866206
-0.000890623
3.33423e-05
1.17015e-05
-9.88791e-06
-3.16162e-05
-5.33781e-05
-7.50923e-05
-9.67204e-05
-0.000118236
-0.00013961
-0.00016081
-0.000181799
-0.000202543
-0.000223006
-0.000243153
-0.000262948
-0.000282358
-0.000301348
-0.000319884
-0.000337935
-0.00035547
-0.000372461
-0.000388882
-0.000404711
-0.000419927
-0.000434516
-0.000448467
-0.000461774
-0.000474436
-0.000486456
-0.000497851
-0.000508647
-0.000518872
-0.000528555
-0.000537728
-0.00054643
-0.000554702
-0.000562589
-0.000570137
-0.000577393
-0.000584402
-0.000591207
-0.00059785
-0.000604368
-0.000610797
-0.000617168
-0.000623511
-0.000629854
-0.000636226
-0.000642655
-0.000649167
-0.000655793
-0.000662565
-0.000669519
-0.000676695
-0.000684155
-0.000691993
-0.000700345
-0.000709406
-0.000719406
-0.000730593
-0.000743264
-0.000757782
-0.000774482
-0.000793497
-0.000814361
-0.000836089
-0.000857851
-0.000879961
-0.000901684
8.07351e-06
-1.46191e-05
-3.72147e-05
-5.99305e-05
-8.26696e-05
-0.000105347
-0.000127919
-0.000150353
-0.000172619
-0.000194679
-0.000216495
-0.000238028
-0.000259238
-0.000280087
-0.000300536
-0.000320546
-0.000340079
-0.000359098
-0.000377567
-0.000395454
-0.000412725
-0.000429354
-0.000445315
-0.000460586
-0.000475152
-0.000489002
-0.000502129
-0.000514534
-0.000526227
-0.00053723
-0.000547573
-0.000557287
-0.00056641
-0.000574984
-0.000583058
-0.000590685
-0.000597921
-0.000604824
-0.000611451
-0.000617858
-0.000624095
-0.00063021
-0.000636245
-0.000642236
-0.000648213
-0.000654204
-0.000660233
-0.000666325
-0.000672504
-0.000678792
-0.00068521
-0.00069179
-0.000698576
-0.000705636
-0.000713061
-0.00072096
-0.000729428
-0.000738535
-0.000748356
-0.000759007
-0.000770654
-0.000783448
-0.000797422
-0.000812268
-0.000827603
-0.000843694
-0.000861405
-0.000881714
-0.00090334
-1.94916e-05
-4.32851e-05
-6.69325e-05
-9.06821e-05
-0.000114447
-0.000138139
-0.000161705
-0.000185112
-0.000208322
-0.000231297
-0.000253993
-0.000276368
-0.000298378
-0.000319979
-0.000341128
-0.000361782
-0.000381898
-0.000401434
-0.000420351
-0.00043861
-0.000456176
-0.000473016
-0.000489102
-0.00050441
-0.000518921
-0.000532623
-0.000545509
-0.000557581
-0.000568853
-0.000579353
-0.000589113
-0.000598171
-0.000606576
-0.000614381
-0.000621648
-0.000628446
-0.000634847
-0.000640924
-0.000646749
-0.000652391
-0.000657912
-0.000663367
-0.000668801
-0.000674247
-0.000679729
-0.000685261
-0.000690856
-0.00069653
-0.000702307
-0.000708233
-0.000714365
-0.000720765
-0.000727496
-0.000734619
-0.000742173
-0.00075015
-0.000758478
-0.000767066
-0.000775845
-0.000784737
-0.000793634
-0.000802391
-0.000810845
-0.000819231
-0.000828648
-0.000840873
-0.000857279
-0.000877993
-0.000900432
-4.75723e-05
-7.25937e-05
-9.74392e-05
-0.00012237
-0.000147307
-0.000172158
-0.000196866
-0.00022139
-0.000245691
-0.000269725
-0.000293445
-0.000316802
-0.000339748
-0.000362235
-0.000384213
-0.000405633
-0.000426447
-0.000446608
-0.00046607
-0.000484788
-0.000502723
-0.000519836
-0.000536091
-0.000551461
-0.000565921
-0.000579456
-0.000592058
-0.000603728
-0.000614486
-0.000624361
-0.000633391
-0.000641624
-0.000649119
-0.000655947
-0.000662189
-0.000667933
-0.000673271
-0.0006783
-0.000683111
-0.000687793
-0.000692422
-0.000697059
-0.000701746
-0.000706511
-0.000711366
-0.00071632
-0.000721382
-0.000726571
-0.000731934
-0.000737548
-0.000743517
-0.000749925
-0.000756798
-0.000764068
-0.000771601
-0.000779249
-0.000786844
-0.000794133
-0.00080075
-0.000806307
-0.000810568
-0.000813531
-0.00081568
-0.000818559
-0.000824576
-0.000835767
-0.000852567
-0.00087385
-0.000896438
-7.4078e-05
-0.000100568
-0.000126849
-0.0001532
-0.000179549
-0.000205797
-0.000231883
-0.00025776
-0.000283386
-0.00030871
-0.000333681
-0.000358245
-0.000382348
-0.000405934
-0.000428948
-0.000451335
-0.00047304
-0.000494009
-0.000514188
-0.000533528
-0.000551978
-0.000569492
-0.000586028
-0.000601548
-0.000616021
-0.000629425
-0.000641747
-0.000652992
-0.000663179
-0.000672336
-0.000680508
-0.000687752
-0.000694142
-0.00069977
-0.00070474
-0.000709165
-0.000713166
-0.000716864
-0.000720377
-0.000723816
-0.000727277
-0.000730838
-0.000734557
-0.000738477
-0.000742629
-0.000747036
-0.000751717
-0.000756686
-0.000761948
-0.000767504
-0.00077337
-0.000779577
-0.000786169
-0.000793083
-0.000800116
-0.000806934
-0.000813084
-0.000818025
-0.000821202
-0.000822234
-0.00082124
-0.000819103
-0.000817394
-0.000818027
-0.000823155
-0.000834004
-0.000850513
-0.000871083
-0.000892424
-0.000100052
-0.000128174
-0.000156152
-0.0001842
-0.000212238
-0.00024017
-0.000267924
-0.00029545
-0.000322697
-0.00034961
-0.00037613
-0.000402196
-0.000427745
-0.000452716
-0.000477044
-0.000500666
-0.000523518
-0.000545534
-0.000566653
-0.000586812
-0.000605952
-0.000624012
-0.000640938
-0.000656678
-0.000671189
-0.000684434
-0.000696394
-0.000707071
-0.000716485
-0.000724669
-0.000731673
-0.00073757
-0.00074245
-0.000746427
-0.000749632
-0.000752215
-0.000754341
-0.000756184
-0.000757923
-0.000759732
-0.00076177
-0.000764172
-0.000767028
-0.000770377
-0.000774195
-0.00077841
-0.000782925
-0.00078767
-0.000792599
-0.0007977
-0.000802942
-0.000808282
-0.000813758
-0.000819419
-0.000825044
-0.000830023
-0.000833686
-0.000835566
-0.000835285
-0.00083274
-0.000828428
-0.000823923
-0.000821337
-0.000821765
-0.000826033
-0.000835428
-0.000850242
-0.000868673
-0.000887631
-0.000119127
-0.000149437
-0.000179482
-0.000209577
-0.000239652
-0.000269598
-0.000299341
-0.000328826
-0.000358
-0.000386801
-0.000415165
-0.000443023
-0.000470307
-0.000496946
-0.000522868
-0.000548
-0.000572271
-0.000595608
-0.000617943
-0.000639207
-0.000659335
-0.000678254
-0.000695887
-0.00071216
-0.000727012
-0.000740392
-0.000752267
-0.000762618
-0.000771443
-0.000778763
-0.000784626
-0.000789112
-0.000792333
-0.000794439
-0.000795614
-0.000796079
-0.000796082
-0.000795894
-0.000795787
-0.000796017
-0.000796797
-0.000798267
-0.000800479
-0.000803379
-0.00080681
-0.000810544
-0.000814333
-0.000818018
-0.000821622
-0.000825288
-0.000829013
-0.000832534
-0.00083559
-0.000838292
-0.000840954
-0.000843371
-0.000844783
-0.000844643
-0.000842792
-0.000839506
-0.000835277
-0.000830997
-0.000828013
-0.000827642
-0.000830646
-0.000837912
-0.000849942
-0.000865356
-0.000881339
-0.000151313
-0.0001837
-0.000216227
-0.000248832
-0.000281415
-0.000313872
-0.000346121
-0.000378098
-0.000409738
-0.000440971
-0.00047172
-0.000501907
-0.000531449
-0.000560262
-0.00058826
-0.000615353
-0.000641451
-0.000666461
-0.000690289
-0.000712838
-0.00073401
-0.000753685
-0.000771736
-0.000788079
-0.000802652
-0.000815395
-0.000826274
-0.000835277
-0.000842411
-0.000847711
-0.000851243
-0.000853113
-0.000853464
-0.000852487
-0.000850414
-0.000847522
-0.000844123
-0.000840561
-0.000837198
-0.000834398
-0.000832493
-0.000831742
-0.000832269
-0.000834008
-0.000836662
-0.000839689
-0.000842378
-0.000844114
-0.000844816
-0.000844958
-0.000844998
-0.000845039
-0.000844941
-0.000844946
-0.000845599
-0.000846914
-0.000847944
-0.000847773
-0.000846107
-0.000843342
-0.000840062
-0.000836982
-0.000834955
-0.000834514
-0.000835967
-0.000840166
-0.000848184
-0.000859604
-0.000872384
-0.000162193
-0.000197066
-0.00023145
-0.000266075
-0.000300764
-0.000335282
-0.000369536
-0.000403479
-0.000437055
-0.00047019
-0.000502802
-0.000534803
-0.000566106
-0.00059662
-0.000626252
-0.00065491
-0.000682504
-0.000708956
-0.000734207
-0.000758224
-0.000781008
-0.000802466
-0.000822287
-0.000840169
-0.000855966
-0.000869615
-0.000881058
-0.000890231
-0.00089708
-0.000901578
-0.000903734
-0.00090361
-0.000901338
-0.00089714
-0.000891341
-0.000884378
-0.000876794
-0.000869222
-0.000862337
-0.00085679
-0.000853112
-0.000851614
-0.000852282
-0.000854691
-0.000857992
-0.000861001
-0.000862391
-0.000861153
-0.000857504
-0.000853122
-0.000849561
-0.000847484
-0.000846848
-0.000847167
-0.000847692
-0.000847865
-0.000847532
-0.00084672
-0.000845292
-0.000843303
-0.000841252
-0.000839625
-0.000838632
-0.000838288
-0.000838677
-0.00084022
-0.000843858
-0.000850337
-0.000859473
-0.000252281
-0.000289734
-0.000327671
-0.00036561
-0.000403364
-0.000440883
-0.000478107
-0.00051496
-0.000551365
-0.000587244
-0.000622503
-0.000657039
-0.000690745
-0.00072351
-0.000755211
-0.000785713
-0.000814864
-0.000842491
-0.000868391
-0.00089234
-0.000914082
-0.000933478
-0.000950644
-0.00096568
-0.000978489
-0.00098889
-0.000996701
-0.00100177
-0.00100398
-0.00100327
-0.000999655
-0.000993199
-0.000984074
-0.000972558
-0.000959054
-0.000944102
-0.000928364
-0.00091261
-0.00089767
-0.000884372
-0.000873452
-0.000865452
-0.000860614
-0.000858798
-0.000859442
-0.000861579
-0.00086393
-0.00086527
-0.000864879
-0.000862458
-0.000858437
-0.000853929
-0.000850265
-0.000848202
-0.000847252
-0.000846359
-0.000845091
-0.000843472
-0.000841707
-0.000840125
-0.000839086
-0.000838759
-0.000839033
-0.000839638
-0.000840353
-0.000841018
-0.000841687
-0.000843552
-0.000849379
0.000117389
0.000123011
0.000128966
0.000135403
0.000142336
0.000149742
0.000157714
0.000166078
0.000174921
0.000184244
0.000193998
0.000204276
0.000214722
0.000226162
0.000236975
0.00024857
0.000259496
0.000270983
0.000282157
0.000293189
0.000304702
0.000314512
0.000324207
0.000332881
0.000340793
0.000347901
0.000353483
0.000357947
0.000361326
0.000363277
0.000363506
0.000362423
0.000360129
0.000356803
0.000351691
0.000345576
0.000338564
0.000330474
0.000321561
0.000312212
0.000302236
0.000291637
0.000281191
0.000270917
0.00025968
0.000249258
0.000238347
0.000227955
0.000217748
0.000207793
0.000198285
0.00018908
0.000180385
0.000171979
0.000164132
0.000156201
0.000148851
0.000141886
0.000135297
0.00011781
0.000123628
0.00012994
0.000136711
0.000143965
0.000151718
0.000159986
0.000168732
0.000177987
0.000187741
0.00019795
0.000208626
0.00021967
0.000231122
0.000242857
0.000254707
0.000266694
0.000278626
0.000290533
0.000302075
0.000313467
0.000324285
0.000334377
0.000343603
0.000351893
0.000359173
0.000365218
0.000369906
0.000373403
0.000375379
0.000375683
0.000374684
0.000372314
0.00036853
0.000363332
0.000356926
0.000349492
0.000341116
0.000331851
0.000321921
0.000311499
0.000300609
0.000289544
0.000278247
0.000266879
0.00025563
0.000244474
0.000233585
0.000222927
0.000212544
0.000202536
0.000192917
0.000183647
0.00017481
0.000166335
0.000158286
0.00015064
0.000143391
0.000136497
0.000118301
0.000124383
0.000130952
0.000138027
0.000145613
0.000153721
0.000162352
0.000171507
0.000181191
0.000191398
0.000202087
0.000213228
0.00022479
0.00023673
0.000248967
0.000261484
0.000274109
0.000286731
0.000299209
0.0003114
0.000323224
0.00033455
0.000345204
0.000354948
0.000363699
0.000371312
0.000377651
0.000382641
0.000386261
0.000388307
0.000388749
0.000387718
0.000385155
0.000381126
0.000375674
0.000368971
0.000361126
0.000352313
0.00034262
0.000332221
0.000321269
0.000309823
0.000298091
0.000286228
0.000274312
0.000262505
0.000250836
0.000239389
0.000228207
0.000217329
0.000206826
0.000196705
0.000186988
0.000177687
0.00016884
0.000160432
0.000152434
0.00014484
0.000137625
0.000118524
0.000124873
0.000131735
0.000139124
0.000147052
0.000155531
0.000164565
0.000174157
0.000184303
0.000194992
0.000206201
0.000217896
0.000230044
0.000242582
0.000255425
0.000268538
0.000281761
0.000295014
0.000308128
0.000320997
0.000333462
0.000345334
0.000356516
0.000366772
0.000375994
0.000384014
0.000390684
0.000395938
0.000399711
0.000401858
0.000402371
0.000401276
0.000398552
0.000394316
0.000388584
0.000381536
0.000373279
0.000363977
0.000353769
0.000342821
0.000331277
0.00031925
0.000306936
0.0002945
0.000281995
0.000269575
0.000257304
0.000245259
0.000233508
0.000222096
0.000211071
0.000200461
0.000190288
0.00018056
0.000171287
0.000162461
0.000154072
0.000146109
0.000138556
0.000118385
0.000125017
0.000132189
0.000139916
0.00014821
0.000157084
0.000166545
0.000176595
0.00018723
0.000198439
0.000210199
0.000222479
0.000235235
0.000248404
0.00026191
0.000275669
0.000289562
0.000303483
0.000317283
0.00033083
0.000343956
0.000356462
0.000368215
0.000379013
0.000388721
0.000397172
0.000404209
0.000409735
0.000413685
0.000415942
0.000416491
0.000415335
0.000412467
0.000408
0.000401973
0.000394548
0.000385856
0.000376052
0.000365295
0.000353757
0.000341599
0.00032897
0.000316039
0.000302956
0.000289818
0.000276752
0.000263851
0.000251195
0.000238851
0.000226872
0.000215301
0.00020417
0.000193497
0.000183294
0.000173565
0.000164307
0.000155513
0.000147168
0.000139254