/*--------------------------------*- C++ -*----------------------------------*\
| =========                 |                                                 |
| \\      /  F ield         | OpenFOAM: The Open Source CFD Toolbox           |
|  \\    /   O peration     | Version:  2312                                  |
|   \\  /    A nd           | Website:  www.openfoam.com                      |
|    \\/     M anipulation  |                                                 |
\*---------------------------------------------------------------------------*/
FoamFile
{
    version     2.0;
    format      ascii;
    arch        "LSB;label=32;scalar=64";
    class       surfaceScalarField;
    location    "700";
    object      phi;
}
// * * * * * * * * * * * * * * * * * * * * * * * * * * * * * * * * * * * * * //

dimensions      [0 3 -1 0 0 0 0];

oriented        oriented;

internalField   nonuniform List<scalar> 
116611
(
0.0011086
0.000411059
-0.00109281
-0.000426844
0.00112429
0.000406866
-0.000422562
0.00113981
0.000402337
-0.000417857
0.00115518
0.000397463
-0.000412833
0.00117037
0.000392258
-0.000407447
0.00118558
0.000386679
-0.000401883
0.00120037
0.000380726
-0.00039552
0.00121513
0.000374378
-0.000389134
0.00122948
0.000367592
-0.000381945
0.00124366
0.000360373
-0.000374553
0.00125759
0.000352718
-0.00036665
0.00127131
0.000344618
-0.000358342
0.00128471
0.000336071
-0.000349465
0.00129774
0.000327016
-0.000340052
0.0013105
0.000317489
-0.000330248
0.00132276
0.000307447
-0.000319705
0.00133488
0.000296865
-0.000308983
0.0013465
0.000285785
-0.0002974
0.00135781
0.000274092
-0.000285408
0.00136861
0.000261898
-0.0002727
0.00137909
0.00024907
-0.000259547
0.001389
0.000235667
-0.000245573
0.0013984
0.00022163
-0.000231038
0.00140742
0.000207033
-0.000216046
0.00141592
0.000191799
-0.000200297
0.00142392
0.000175907
-0.000183909
0.0014314
0.000159325
-0.000166808
0.00143823
0.000142126
-0.000148957
0.00144473
0.000124277
-0.000130777
0.00145037
0.000105703
-0.000111343
0.00145561
8.6509e-05
-9.17472e-05
0.00146011
6.64621e-05
-7.09632e-05
0.00146407
4.57378e-05
-4.96967e-05
0.00146728
2.43165e-05
-2.75252e-05
0.00146991
2.12393e-06
-4.75633e-06
0.00147175
-2.07503e-05
1.8909e-05
0.00147315
-4.43853e-05
4.29942e-05
0.00147364
-6.88295e-05
6.8332e-05
0.00147335
-9.40271e-05
9.43179e-05
0.0014722
-0.000120056
0.000121209
0.00147033
-0.000146742
0.000148608
0.00146779
-0.000174212
0.000176753
0.00146418
-0.000202506
0.000206114
0.0014597
-0.000231485
0.000235965
0.00145432
-0.000261223
0.000266601
0.00144811
-0.000291638
0.000297851
0.00144085
-0.00032284
0.000330097
0.00143245
-0.000354684
0.000363084
0.00142317
-0.000387126
0.000396408
0.00141284
-0.000420206
0.000430535
0.00140136
-0.000453924
0.000465413
0.00138877
-0.000488159
0.000500741
0.00137498
-0.000522907
0.000536699
0.00135986
-0.000558121
0.000573245
0.0013433
-0.000593664
0.000610223
0.00132578
-0.000629331
0.000646851
0.00130665
-0.000665326
0.000684456
0.00128632
-0.000701286
0.000721621
0.00126457
-0.000737218
0.000758966
0.00124119
-0.000773
0.000796382
0.00121625
-0.000808358
0.000833298
0.00118934
-0.000843126
0.000870029
0.00116062
-0.000876649
0.000905374
0.0011295
-0.000908682
0.000939795
0.00109574
-0.000938641
0.0009724
0.00105989
-0.000965774
0.00100163
0.0010209
-0.000990255
0.00102924
0.000977218
-0.0010116
0.00105528
-0.00102866
0.000930202
0.00107568
0.00109292
0.000395337
-0.0010772
0.0011085
0.000391292
0.00112392
0.000386914
0.00113918
0.000382199
0.00115432
0.000377125
0.00116928
0.000371715
0.00118407
0.000365938
0.00119867
0.00035978
0.00121303
0.000353228
0.00122715
0.000346252
0.00124103
0.000338847
0.00125463
0.000331011
0.00126798
0.000322724
0.00128102
0.000313975
0.00129374
0.000304767
0.00130614
0.000295052
0.00131816
0.000284837
0.00132985
0.000274097
0.00134112
0.000262822
0.00135202
0.000250996
0.00136249
0.000238607
0.00137251
0.000225646
0.00138204
0.000212094
0.00139112
0.000197953
0.00139972
0.0001832
0.00140782
0.000167806
0.00141536
0.000151783
0.00142237
0.000135119
0.00142885
0.000117799
0.00143473
9.98228e-05
0.00144008
8.11553e-05
0.00144477
6.17722e-05
0.00144882
4.16951e-05
0.00145222
2.09143e-05
0.00145493
-5.83759e-07
0.00145698
-2.28067e-05
0.00145836
-4.57608e-05
0.00145898
-6.94536e-05
0.00145886
-9.39045e-05
0.00145791
-0.000119112
0.00145621
-0.000145037
0.00145369
-0.000171692
0.00145027
-0.000199089
0.001446
-0.000227212
0.00144082
-0.000256043
0.00143474
-0.000285557
0.00142765
-0.000315758
0.00141958
-0.000346611
0.00141053
-0.000378073
0.00140044
-0.000410121
0.00138926
-0.000442739
0.00137697
-0.000475867
0.00136351
-0.000509456
0.00134884
-0.000543449
0.00133293
-0.000577755
0.00131585
-0.000612251
0.00129744
-0.000646914
0.00127775
-0.000681599
0.00125671
-0.000716178
0.0012342
-0.000750489
0.0012101
-0.000784255
0.00118414
-0.000817163
0.0011562
-0.000848718
0.001126
-0.000878481
0.00109334
-0.000905981
0.0010582
-0.000930629
0.00102014
-0.000952194
0.000978727
-0.00097019
-0.000984248
0.000934314
0.00107772
0.000379708
-0.00106209
0.00109321
0.000375797
0.00110857
0.00037156
0.00112377
0.000366997
0.0011388
0.000362096
0.00115366
0.000356853
0.00116834
0.000351253
0.00118284
0.000345285
0.00119713
0.000338937
0.00121119
0.000332194
0.00122499
0.000325041
0.00123854
0.000317466
0.00125181
0.000309455
0.00126478
0.000300998
0.00127747
0.000292084
0.00128983
0.000282694
0.00130185
0.000272816
0.00131351
0.000262436
0.00132479
0.000251538
0.00133568
0.000240108
0.00134615
0.000228135
0.00135619
0.000215605
0.00136578
0.000202505
0.00137491
0.000188825
0.00138356
0.000174551
0.0013917
0.000159666
0.00139932
0.000144164
0.00140641
0.000128032
0.00141294
0.000111261
0.00141893
9.38403e-05
0.00142433
7.57541e-05
0.00142911
5.69909e-05
0.00143326
3.75442e-05
0.00143676
1.74094e-05
0.0014396
-3.42109e-06
0.00144176
-2.49674e-05
0.00144323
-4.72241e-05
0.00144397
-7.01992e-05
0.00144397
-9.39013e-05
0.00144318
-0.000118326
0.00144161
-0.000143464
0.00143923
-0.00016931
0.00143601
-0.000195867
0.00143192
-0.000223126
0.00142695
-0.000251067
0.00142106
-0.000279675
0.00141424
-0.000308934
0.00140645
-0.000338822
0.00139768
-0.000369301
0.0013879
-0.000400341
0.00137707
-0.000431912
0.00136517
-0.000463967
0.00135217
-0.000496452
0.00133802
-0.000529305
0.00132272
-0.000562449
0.00130626
-0.000595789
0.00128858
-0.000629242
0.00126967
-0.000662684
0.00124944
-0.000695944
0.00122775
-0.000728804
0.00120445
-0.000760959
0.00117933
-0.000792038
0.0011522
-0.000821589
0.00112287
-0.000849149
0.00109118
-0.000874292
0.00105704
-0.000896491
0.00102027
-0.000915419
0.000980653
-0.000930576
-0.000941623
0.000938028
0.00106305
0.000364147
-0.00104749
0.00107848
0.000360368
0.00109377
0.000356274
0.0011089
0.000351865
0.00112386
0.000347132
0.00113865
0.000342065
0.00115325
0.000336651
0.00116766
0.000330881
0.00118185
0.000324742
0.00119582
0.000318223
0.00120955
0.00031131
0.00122303
0.00030399
0.00123623
0.000296251
0.00124915
0.00028808
0.00126177
0.000279466
0.00127407
0.000270393
0.00128604
0.000260848
0.00129766
0.000250817
0.00130891
0.000240288
0.00131977
0.000229246
0.00133023
0.000217679
0.00134026
0.000205571
0.00134985
0.000192912
0.00135899
0.000179688
0.00136765
0.000165886
0.00137582
0.000151496
0.00138349
0.000136503
0.00139062
0.000120899
0.00139721
0.000104672
0.00140324
8.78107e-05
0.00140869
7.03044e-05
0.00141354
5.21422e-05
0.00141776
3.33154e-05
0.00142135
1.38195e-05
0.00142429
-6.35681e-06
0.00142655
-2.72294e-05
0.00142812
-4.8795e-05
0.00142898
-7.1058e-05
0.0014291
-9.40219e-05
0.00142846
-0.000117686
0.00142704
-0.000142045
0.00142483
-0.000167094
0.00142179
-0.000192829
0.0014179
-0.000219241
0.00141315
-0.000246316
0.00140751
-0.000274035
0.00140096
-0.000302382
0.00139347
-0.000331333
0.00138503
-0.000360856
0.00137561
-0.000390919
0.00136518
-0.000421487
0.00135373
-0.000452515
0.00134123
-0.00048395
0.00132765
-0.000515732
0.00131299
-0.000547786
0.00129722
-0.00058002
0.0012803
-0.000612324
0.00126217
-0.00064455
0.00124271
-0.000676491
0.0012218
-0.000707888
0.00119924
-0.000738405
0.00117487
-0.000767662
0.00114851
-0.000795234
0.00112005
-0.000820682
0.00108937
-0.000843616
0.00105641
-0.000863531
0.00102109
-0.000880103
0.000983338
-0.00089282
-0.000901343
0.000943059
0.0010489
0.000348633
-0.00103339
0.00106428
0.000344991
0.0010795
0.000341045
0.00109458
0.000336792
0.00110948
0.000332227
0.00112421
0.000327338
0.00113875
0.000322115
0.00115308
0.000316548
0.0011672
0.000310623
0.00118109
0.00030433
0.00119474
0.000297656
0.00120815
0.000290589
0.00122128
0.000283118
0.00123413
0.000275231
0.00124668
0.000266915
0.00125891
0.000258156
0.00127082
0.000248941
0.00128238
0.000239256
0.00129358
0.000229088
0.0013044
0.000218426
0.00131482
0.000207257
0.00132483
0.000195565
0.00133441
0.000183337
0.00134353
0.000170562
0.00135219
0.000157227
0.00136037
0.00014332
0.00136804
0.00012883
0.00137519
0.000113745
0.00138181
9.80547e-05
0.00138787
8.17476e-05
0.00139336
6.48134e-05
0.00139826
4.72422e-05
0.00140255
2.90255e-05
0.00140622
1.01585e-05
0.00140923
-9.37441e-06
0.00141159
-2.95833e-05
0.00141326
-5.04666e-05
0.00141423
-7.20274e-05
0.00141447
-9.42679e-05
0.00141398
-0.000117188
0.00141271
-0.000140783
0.00141067
-0.00016505
0.00140782
-0.000189982
0.00140415
-0.00021557
0.00139964
-0.000241799
0.00139426
-0.000268655
0.00138799
-0.000296117
0.00138082
-0.000324163
0.00137273
-0.000352763
0.0013637
-0.000381886
0.0013537
-0.000411495
0.00134274
-0.000441548
0.00133078
-0.000471992
0.00131781
-0.000502764
0.00130381
-0.000533787
0.00128875
-0.000564954
0.00127255
-0.000596131
0.00125514
-0.000627137
0.00123638
-0.000657735
0.00121613
-0.000687637
0.00119423
-0.000716502
0.00117054
-0.000743969
0.00114494
-0.000769638
0.00111738
-0.000793118
0.0010878
-0.000814037
0.00105616
-0.000831898
0.00102247
-0.000846409
0.000986648
-0.000856998
-0.000863223
0.000948528
0.00103524
0.000333157
-0.00101976
0.00105058
0.000329655
0.00106576
0.000325859
0.00108079
0.000321767
0.00109564
0.000317372
0.00111031
0.000312665
0.0011248
0.000307634
0.00113907
0.000302271
0.00115313
0.000296564
0.00116696
0.000290501
0.00118054
0.00028407
0.00119388
0.000277258
0.00120694
0.000270056
0.00121972
0.00026245
0.0012322
0.000254431
0.00124438
0.000245984
0.00125622
0.000237096
0.00126772
0.000227754
0.00127887
0.000217944
0.00128964
0.000207657
0.00130001
0.000196879
0.00130998
0.000185596
0.00131953
0.000173794
0.00132862
0.000161462
0.00133726
0.000148587
0.00134543
0.000135158
0.00135309
0.000121162
0.00136025
0.000106589
0.00136688
9.14265e-05
0.00137296
7.56652e-05
0.00137848
5.92944e-05
0.00138342
4.23048e-05
0.00138776
2.46877e-05
0.00139148
6.43825e-06
0.00139456
-1.24625e-05
0.001397
-3.20192e-05
0.00139877
-5.2232e-05
0.00139984
-7.31036e-05
0.00140021
-9.46357e-05
0.00139985
-0.000116828
0.00139874
-0.000139678
0.00139687
-0.00016318
0.00139422
-0.000187329
0.00139077
-0.000212115
0.00138649
-0.000237525
0.00138138
-0.000263543
0.00137541
-0.000290151
0.00136858
-0.000317326
0.00136085
-0.000345042
0.00135224
-0.000373267
0.00134271
-0.000401966
0.00133225
-0.000431095
0.00132086
-0.000460599
0.00130851
-0.00049041
0.00129515
-0.000520433
0.00128074
-0.000550544
0.00126519
-0.000580579
0.00124838
-0.000610332
0.00123019
-0.000639547
0.00121049
-0.000667935
0.00118916
-0.00069517
0.00116611
-0.000720923
0.0011413
-0.000744825
0.00111471
-0.000766528
0.00108634
-0.000785667
0.00105619
-0.000801751
0.00102431
-0.000814523
0.000990633
-0.000823323
-0.000827589
0.000954999
0.00102209
0.000317718
-0.00100665
0.00103739
0.000314357
0.00105253
0.000310713
0.00106752
0.000306784
0.00108233
0.000302561
0.00109696
0.000298036
0.00111139
0.000293201
0.00112562
0.000288044
0.00113962
0.000282556
0.0011534
0.000276726
0.00116693
0.000270541
0.0011802
0.000263988
0.0011932
0.000257056
0.00120592
0.000249733
0.00121834
0.000242009
0.00123045
0.000233872
0.00124224
0.00022531
0.00125368
0.000216308
0.00126477
0.000206856
0.00127549
0.00019694
0.00128582
0.00018655
0.00129574
0.000175672
0.00130524
0.000164292
0.00131431
0.000152398
0.00132292
0.000139978
0.00133106
0.000127019
0.00133871
0.000113511
0.00134585
9.94411e-05
0.00135248
8.47996e-05
0.00135857
6.95757e-05
0.00136411
5.37595e-05
0.00136907
3.73414e-05
0.00137344
2.03133e-05
0.00137721
2.66953e-06
0.00138036
-1.56107e-05
0.00138287
-3.45275e-05
0.00138472
-5.4083e-05
0.00138589
-7.42795e-05
0.00138638
-9.5119e-05
0.00138615
-0.000116601
0.0013852
-0.000138723
0.0013835
-0.000161482
0.00138104
-0.000184869
0.0013778
-0.000208878
0.00137377
-0.000233495
0.00136893
-0.000258706
0.00136328
-0.000284493
0.00135679
-0.000310836
0.00134945
-0.000337709
0.00134127
-0.000365081
0.00133222
-0.000392915
0.00132229
-0.000421163
0.00131145
-0.000449761
0.00129966
-0.000478626
0.00128688
-0.000507645
0.001273
-0.000536672
0.00125795
-0.000565523
0.0012416
-0.000593979
0.00122384
-0.000621789
0.00120458
-0.000648682
0.00118377
-0.00067436
0.00116138
-0.000698531
0.00113741
-0.000720851
0.0011119
-0.000741015
0.00108487
-0.000758641
0.00105638
-0.000773265
0.00102651
-0.000784648
0.000995209
-0.000792022
-0.000794755
0.000962374
0.00100948
0.000302324
-0.000994088
0.00102474
0.000299101
0.00103984
0.000295606
0.00105479
0.00029184
0.00106956
0.000287792
0.00108414
0.000283451
0.00109853
0.000278812
0.00111271
0.000273864
0.00112667
0.000268596
0.0011404
0.000262999
0.00115388
0.00025706
0.0011671
0.000250769
0.00118004
0.00024411
0.0011927
0.000237073
0.00120507
0.000229645
0.00121712
0.000221817
0.00122885
0.000213578
0.00124025
0.000204917
0.00125128
0.00019582
0.00126195
0.000186276
0.00127222
0.000176272
0.0012821
0.000165796
0.00129156
0.000154834
0.00130058
0.000143374
0.00130916
0.000131403
0.00131726
0.00011891
0.00132489
0.000105883
0.00133202
9.23109e-05
0.00133864
7.81829e-05
0.00134473
6.34886e-05
0.00135027
4.8218e-05
0.00135525
3.2362e-05
0.00135965
1.59126e-05
0.00136346
-1.13809e-06
0.00136665
-1.88089e-05
0.00136923
-3.70989e-05
0.00137115
-5.60107e-05
0.00137242
-7.55475e-05
0.00137301
-9.5711e-05
0.00137291
-0.000116501
0.00137211
-0.000137916
0.00137058
-0.000159952
0.00136831
-0.000182603
0.00136529
-0.000205861
0.00136151
-0.000229716
0.00135696
-0.000254153
0.00135162
-0.000279156
0.00134549
-0.000304705
0.00133856
-0.000330774
0.00133081
-0.00035733
0.00132222
-0.000384329
0.00131277
-0.000411713
0.00130242
-0.000439405
0.00129109
-0.000467303
0.00127873
-0.000495278
0.00126522
-0.000523169
0.00125049
-0.000550789
0.00123444
-0.000577927
0.001217
-0.000604352
0.00119814
-0.000629821
0.00117785
-0.00065407
0.00115616
-0.000676839
0.00113311
-0.000697804
0.0011088
-0.000716698
0.00108326
-0.000733109
0.00105663
-0.000746632
0.00102899
-0.000757003
0.00100034
-0.000763378
-0.000765144
0.000970731
0.000997466
0.00028698
-0.000982123
0.00101267
0.000283894
0.00102773
0.000280547
0.00104263
0.000276941
0.00105736
0.000273067
0.0010719
0.000268913
0.00108624
0.00026447
0.00110037
0.00025973
0.00111428
0.000254683
0.00112796
0.000249318
0.0011414
0.000243625
0.00115458
0.000237593
0.00116748
0.00023121
0.00118009
0.000224461
0.0011924
0.000217336
0.00120439
0.000209821
0.00121607
0.000201905
0.0012274
0.000193582
0.00123838
0.000184837
0.001249
0.000175662
0.00125922
0.000166044
0.00126905
0.000155969
0.00127846
0.000145422
0.00128744
0.000134393
0.00129598
0.000122868
0.00130405
0.000110835
0.00131165
9.82847e-05
0.00131876
8.52041e-05
0.00132536
7.15829e-05
0.00133144
5.74108e-05
0.00133698
4.26778e-05
0.00134197
2.73746e-05
0.00134638
1.14938e-05
0.00135022
-4.97607e-06
0.00135346
-2.20491e-05
0.00135609
-3.97253e-05
0.00135809
-5.80083e-05
0.00135944
-7.69015e-05
0.00136014
-9.64069e-05
0.00136016
-0.000116525
0.0013595
-0.000137254
0.00135814
-0.000158592
0.00135607
-0.000180533
0.00135328
-0.000203071
0.00134976
-0.000226194
0.0013455
-0.000249891
0.00134048
-0.000274144
0.00133471
-0.000298931
0.00132816
-0.000324221
0.0013208
-0.000349975
0.00131261
-0.000376138
0.00130353
-0.000402638
0.00129351
-0.000429385
0.00128247
-0.000456263
0.00127033
-0.000483137
0.00125701
-0.000509847
0.00124244
-0.00053622
0.00122658
-0.000562064
0.0012094
-0.000587178
0.00119093
-0.000611349
0.0011712
-0.000634342
0.00115029
-0.000655926
0.00112828
-0.000675792
0.00110529
-0.000693707
0.00108141
-0.000709228
0.00105682
-0.000722044
0.00103165
-0.000731836
0.00100612
-0.000737844
-0.000739728
0.0009807
0.000986084
0.000271689
-0.000970793
0.00100124
0.00026874
0.00101624
0.000265541
0.00103109
0.000262095
0.00104576
0.000258392
0.00106026
0.000254421
0.00107455
0.000250175
0.00108864
0.000245645
0.0011025
0.00024082
0.00111613
0.000235688
0.00112952
0.00023024
0.00114264
0.000224466
0.0011555
0.000218356
0.00116806
0.000211895
0.00118033
0.000205075
0.00119227
0.000197879
0.00120388
0.000190292
0.00121516
0.000182307
0.00122608
0.000173913
0.00123664
0.000165103
0.00124681
0.000155868
0.00125659
0.000146192
0.00126596
0.000136058
0.00127489
0.000125456
0.00128339
0.000114374
0.00129142
0.000102799
0.00129899
9.07196e-05
0.00130607
7.81253e-05
0.00131264
6.5005e-05
0.00131871
5.1348e-05
0.00132424
3.71446e-05
0.00132923
2.23853e-05
0.00133366
7.06297e-06
0.00133752
-8.83778e-06
0.0013408
-2.53254e-05
0.00134347
-4.24018e-05
0.00134554
-6.00716e-05
0.00134698
-7.83386e-05
0.00134777
-9.72052e-05
0.00134792
-0.000116673
0.00134741
-0.00013674
0.00134622
-0.000157406
0.00134435
-0.000178665
0.00134179
-0.000200509
0.00133853
-0.00022293
0.00133455
-0.000245912
0.00132984
-0.000269433
0.00132437
-0.000293467
0.00131813
-0.000317974
0.00131106
-0.000342905
0.00130311
-0.000368193
0.00129423
-0.000393756
0.00128434
-0.000419497
0.00127338
-0.000445299
0.00126127
-0.000471032
0.00124798
-0.000496554
0.00123347
-0.000521711
0.00121775
-0.00054634
0.00120083
-0.000570267
0.00118279
-0.000593307
0.0011637
-0.000615251
0.00114366
-0.000635889
0.0011228
-0.000654931
0.00110127
-0.000672171
0.0010792
-0.000687158
0.00105685
-0.000699696
0.00103444
-0.000709431
0.0010125
-0.000715902
-0.000719198
0.000991972
0.000975369
0.000256448
-0.000960128
0.000990472
0.000253637
0.00100543
0.000250587
0.00102022
0.000247302
0.00103484
0.000243773
0.00104927
0.000239985
0.00106351
0.000235933
0.00107755
0.000231611
0.00109136
0.000227009
0.00110493
0.000222113
0.00111826
0.00021691
0.00113134
0.000211393
0.00114414
0.000205555
0.00115665
0.000199381
0.00116886
0.000192863
0.00118076
0.000185987
0.00119231
0.000178735
0.00120353
0.000171093
0.00121439
0.000163052
0.00122489
0.000154605
0.00123501
0.000145748
0.00124473
0.000136466
0.00125405
0.000126744
0.00126294
0.000116567
0.00127139
0.000105924
0.00127938
9.48029e-05
0.00128691
8.31916e-05
0.00129396
7.10789e-05
0.00130051
5.84535e-05
0.00130655
4.53049e-05
0.00131207
3.1623e-05
0.00131706
1.73985e-05
0.0013215
2.6234e-06
0.00132538
-1.27197e-05
0.00132869
-2.8635e-05
0.00133141
-4.51267e-05
0.00133354
-6.22001e-05
0.00133506
-7.98595e-05
0.00133597
-9.81079e-05
0.00133624
-0.000116947
0.00133588
-0.000136375
0.00133486
-0.000156392
0.00133319
-0.00017699
0.00133084
-0.00019816
0.0013278
-0.00021989
0.00132404
-0.000242158
0.00131955
-0.000264939
0.00131428
-0.000288194
0.00130818
-0.000311878
0.00130121
-0.000335931
0.0012933
-0.000360282
0.00128439
-0.000384848
0.00127442
-0.000409532
0.00126335
-0.00043423
0.00125115
-0.000458828
0.0012378
-0.000483205
0.00122332
-0.000507231
0.00120775
-0.000530769
0.00119115
-0.000553669
0.00117362
-0.00057577
0.00115525
-0.000596888
0.0011362
-0.000616833
0.00111661
-0.00063534
0.00109667
-0.00065223
0.0010766
-0.00066709
0.00105676
-0.000679859
0.0010376
-0.000690273
0.00102011
-0.000698409
-0.000704843
0.00100576
0.000965343
0.000241257
-0.000950152
0.000980395
0.000238584
0.000995298
0.000235684
0.00101004
0.00023256
0.00102461
0.000229204
0.00103899
0.000225605
0.00105317
0.000221752
0.00106714
0.000217637
0.0010809
0.000213254
0.00109442
0.000208592
0.00110769
0.000203639
0.0011207
0.000198382
0.00113344
0.000192815
0.0011459
0.000186926
0.00115805
0.000180707
0.00116989
0.000174146
0.0011814
0.000167227
0.00119256
0.000159931
0.00120337
0.000152247
0.00121381
0.000144168
0.00122386
0.000135689
0.00123353
0.000126799
0.00124279
0.000117485
0.00125163
0.000107732
0.00126002
9.75256e-05
0.00126797
8.68544e-05
0.00127546
7.57062e-05
0.00128247
6.40692e-05
0.00128899
5.19322e-05
0.00129501
3.92844e-05
0.00130052
2.61154e-05
0.0013055
1.24158e-05
0.00130995
-1.82445e-06
0.00131385
-1.66214e-05
0.00131719
-3.19782e-05
0.00131997
-4.79006e-05
0.00132216
-6.43943e-05
0.00132376
-8.14636e-05
0.00132477
-9.91114e-05
0.00132516
-0.000117338
0.00132493
-0.000136142
0.00132405
-0.000155519
0.00132252
-0.000175459
0.00132031
-0.000195949
0.00131739
-0.00021697
0.00131373
-0.000238495
0.00130928
-0.000260491
0.001304
-0.000282914
0.00129784
-0.000305713
0.00129073
-0.000328827
0.00128264
-0.000352189
0.00127351
-0.00037572
0.00126332
-0.000399338
0.00125204
-0.000422955
0.00123969
-0.000446474
0.00122628
-0.000469796
0.00121186
-0.000492813
0.0011965
-0.000515411
0.0011803
-0.000537463
0.00116335
-0.000558829
0.00114582
-0.000579352
0.00112785
-0.000598864
0.00110966
-0.000617146
0.00109148
-0.000634055
0.0010737
-0.000649307
0.00105686
-0.000663018
0.00104181
-0.000675223
0.00102981
-0.000686409
-0.000697171
0.00102213
0.00095605
0.000226116
-0.000940909
0.000971052
0.000223583
0.000985903
0.000220833
0.00100059
0.00021787
0.00101511
0.000214686
0.00102944
0.000211274
0.00104357
0.000207622
0.00105749
0.00020372
0.00107118
0.000199559
0.00108464
0.000195132
0.00109785
0.000190427
0.0011108
0.000185433
0.00112348
0.000180139
0.00113587
0.000174536
0.00114796
0.000168614
0.00115975
0.000162363
0.0011712
0.000155772
0.00118231
0.000148824
0.00119305
0.000141501
0.00120343
0.000133794
0.00121342
0.000125695
0.00122303
0.000117197
0.00123222
0.000108287
0.001241
9.89523e-05
0.00124935
8.91783e-05
0.00125725
7.89524e-05
0.0012647
6.82621e-05
0.00127167
5.70952e-05
0.00127816
4.54402e-05
0.00128416
3.32857e-05
0.00128966
2.06212e-05
0.00129463
7.43738e-06
0.00129909
-6.27951e-06
0.00130301
-2.05408e-05
0.00130638
-3.53507e-05
0.0013092
-5.07154e-05
0.00131144
-6.664e-05
0.00131311
-8.31279e-05
0.00131417
-0.00010018
0.00131463
-0.000117795
0.00131446
-0.000135967
0.00131362
-0.000154688
0.00131211
-0.000173945
0.00130988
-0.000193718
0.00130689
-0.000213983
0.00130311
-0.00023471
0.00129848
-0.000255861
0.00129296
-0.000277394
0.0012865
-0.000299258
0.00127907
-0.000321399
0.00127064
-0.000343757
0.00126119
-0.000366266
0.00125071
-0.000388858
0.00123921
-0.000411461
0.00122674
-0.000433996
0.00121332
-0.000456383
0.00119905
-0.000478534
0.00118399
-0.000500354
0.00116827
-0.00052174
0.00115201
-0.000542577
0.0011354
-0.000562739
0.00111863
-0.000582096
0.00110199
-0.000600506
0.00108585
-0.000617913
0.00107083
-0.000634284
0.0010578
-0.000649993
0.00104804
-0.000665463
0.0010427
-0.000681066
-0.000696406
0.00104193
0.000947552
0.00021102
-0.000932456
0.000962506
0.000208628
0.000977308
0.000206031
0.000991946
0.000203232
0.00100641
0.000200223
0.00102069
0.000196996
0.00103477
0.000193543
0.00104863
0.000189855
0.00106227
0.00018592
0.00107568
0.000181729
0.00108883
0.000177274
0.00110172
0.000172542
0.00111433
0.000167524
0.00112666
0.000162208
0.00113869
0.000156586
0.00115041
0.000150647
0.0011618
0.000144381
0.00117285
0.000137774
0.00118354
0.00013081
0.00119386
0.000123475
0.00120379
0.000115759
0.00121334
0.000107653
0.00122248
9.91468e-05
0.0012312
9.02274e-05
0.0012395
8.08819e-05
0.00124735
7.10972e-05
0.00125476
6.08604e-05
0.00126169
5.01589e-05
0.00126815
3.89807e-05
0.00127412
2.73143e-05
0.0012796
1.51489e-05
0.00128456
2.47471e-06
0.001289
-1.07236e-05
0.00129291
-2.44524e-05
0.00129628
-3.8717e-05
0.00129909
-5.35224e-05
0.00130132
-6.8872e-05
0.00130296
-8.47668e-05
0.00130398
-0.000101205
0.00130437
-0.000118181
0.00130409
-0.000135688
0.00130311
-0.000153711
0.0013014
-0.000172235
0.00129892
-0.000191238
0.00129563
-0.000210694
0.0012915
-0.000230573
0.00128647
-0.000250839
0.00128053
-0.000271453
0.00127365
-0.000292373
0.0012658
-0.000313551
0.00125698
-0.000334939
0.0012472
-0.000356482
0.00123647
-0.000378126
0.00122482
-0.000399812
0.0012123
-0.000421479
0.00119898
-0.000443061
0.00118493
-0.00046449
0.00117027
-0.000485693
0.00115513
-0.000506592
0.00113965
-0.000527106
0.00112407
-0.000547157
0.00110866
-0.000566687
0.00109384
-0.000585686
0.00108022
-0.000604291
0.00106874
-0.000622798
0.00106056
-0.000641813
0.00105677
-0.000661675
0.00105739
-0.000681692
-0.000697592
0.00105858
0.000939924
0.000195964
-0.000924868
0.000954837
0.000193715
0.000969596
0.000191273
0.000984189
0.000188639
0.000998604
0.000185807
0.00101283
0.000182768
0.00102686
0.000179513
0.00104068
0.000176037
0.00105427
0.000172328
0.00106763
0.000168376
0.00108073
0.000164171
0.00109357
0.000159703
0.00110613
0.000154961
0.0011184
0.000149935
0.00113037
0.000144615
0.00114203
0.00013899
0.00115336
0.00013305
0.00116435
0.000126782
0.00117499
0.000120173
0.00118526
0.000113208
0.00119514
0.000105875
0.00120463
9.81634e-05
0.00121372
9.00624e-05
0.00122238
8.15598e-05
0.00123062
7.26432e-05
0.00123842
6.32996e-05
0.00124576
5.35163e-05
0.00125264
4.32806e-05
0.00125904
3.25806e-05
0.00126495
2.14048e-05
0.00127036
9.74274e-06
0.00127525
-2.41638e-06
0.00127961
-1.50852e-05
0.00128343
-2.82677e-05
0.00128668
-4.19685e-05
0.00128935
-5.6191e-05
0.00129141
-7.09363e-05
0.00129285
-8.6203e-05
0.00129363
-0.000101987
0.00129373
-0.000118281
0.00129311
-0.000135075
0.00129176
-0.000152354
0.00128962
-0.000170101
0.00128668
-0.000188296
0.0012829
-0.000206915
0.00127826
-0.000225929
0.00127273
-0.00024531
0.0012663
-0.000265022
0.00125896
-0.000285032
0.00125071
-0.0003053
0.00124155
-0.000325786
0.00123152
-0.000346447
0.00122063
-0.000367239
0.00120893
-0.000388116
0.00119649
-0.000409031
0.00118336
-0.000429936
0.00116965
-0.000450782
0.00115548
-0.000471523
0.00114101
-0.000492116
0.00112644
-0.000512532
0.00111206
-0.00053278
0.00109831
-0.000552935
0.00108582
-0.000573206
0.00107551
-0.000593977
0.00106848
-0.000615762
0.00106556
-0.000638896
0.00106612
-0.000662232
0.00106596
-0.00068154
-0.000687119
0.00105549
0.00093329
0.000180936
-0.000918262
0.000948172
0.000178833
0.000962897
0.000176547
0.000977455
0.000174081
0.000991834
0.000171428
0.00100602
0.000168579
0.00102001
0.000165526
0.00103378
0.000162262
0.00104733
0.000158778
0.00106064
0.000155065
0.0010737
0.000151111
0.0010865
0.000146908
0.00109902
0.000142445
0.00111124
0.00013771
0.00112316
0.000132694
0.00113477
0.000127386
0.00114604
0.000121775
0.00115697
0.000115849
0.00116755
0.000109596
0.00117776
0.000103002
0.00118758
9.6055e-05
0.001197
8.87432e-05
0.00120601
8.10546e-05
0.00121459
7.29772e-05
0.00122273
6.44987e-05
0.00123043
5.56066e-05
0.00123765
4.62886e-05
0.0012444
3.65325e-05
0.00125066
2.63267e-05
0.0012564
1.56602e-05
0.00126162
4.5233e-06
0.0012663
-7.09585e-06
0.00127042
-1.92048e-05
0.00127396
-3.18076e-05
0.0012769
-4.49081e-05
0.00127922
-5.85085e-05
0.00128089
-7.2609e-05
0.00128189
-8.72071e-05
0.0012822
-0.000102298
0.0012818
-0.000117874
0.00128065
-0.000133925
0.00127873
-0.000150438
0.00127603
-0.000167396
0.00127251
-0.000184783
0.00126817
-0.000202575
0.00126299
-0.000220752
0.00125697
-0.000239285
0.0012501
-0.000258149
0.00124238
-0.000277312
0.00123382
-0.000296745
0.00122445
-0.000316413
0.00121429
-0.000336284
0.00120337
-0.000356323
0.00119175
-0.000376496
0.00117949
-0.000396771
0.00116667
-0.000417119
0.00115341
-0.000437519
0.00113985
-0.000457959
0.00112619
-0.000478455
0.00111272
-0.000499072
0.00109991
-0.000519965
0.00108839
-0.000541415
0.00107902
-0.000563837
0.00107273
-0.000587682
0.00107
-0.000613041
0.00106969
-0.000638583
0.00106719
-0.000659726
0.00105367
-0.000668029
-0.000653778
0.00102033
0.000927819
0.000165929
-0.000912812
0.000942678
0.000163975
0.000957377
0.000161848
0.000971907
0.000159551
0.000986256
0.000157079
0.00100041
0.000154423
0.00101436
0.000151575
0.0010281
0.000148527
0.00104161
0.000145271
0.00105487
0.000141799
0.00106788
0.0001381
0.00108063
0.000134164
0.00109309
0.000129982
0.00110526
0.000125544
0.00111711
0.000120838
0.00112864
0.000115854
0.00113984
0.000110581
0.00115068
0.000105007
0.00116115
9.91213e-05
0.00117125
9.29106e-05
0.00118094
8.63628e-05
0.00119021
7.94657e-05
0.00119906
7.22073e-05
0.00120746
6.45753e-05
0.00121541
5.65576e-05
0.00122287
4.81419e-05
0.00122984
3.93163e-05
0.00123631
3.00689e-05
0.00124224
2.03885e-05
0.00124764
1.02645e-05
0.00125248
-3.12784e-07
0.00125673
-1.13548e-05
0.0012604
-2.28667e-05
0.00126344
-3.48537e-05
0.00126585
-4.73199e-05
0.00126761
-6.02676e-05
0.0012687
-7.36969e-05
0.0012691
-8.76059e-05
0.00126879
-0.00010199
0.00126776
-0.000116843
0.00126599
-0.000132155
0.00126347
-0.000147915
0.00126018
-0.000164109
0.00125612
-0.000180721
0.00125128
-0.000197732
0.00124565
-0.000215123
0.00123924
-0.000232871
0.00123204
-0.000250954
0.00122408
-0.000269348
0.00121536
-0.000288025
0.00120591
-0.000306962
0.00119575
-0.000326132
0.00118494
-0.000345512
0.00117353
-0.000365081
0.00116158
-0.000384826
0.00114921
-0.000404743
0.00113654
-0.00042485
0.00112378
-0.000445199
0.00111123
-0.000465906
0.00109934
-0.000487187
0.00108875
-0.000509376
0.00108022
-0.00053288
0.00107437
-0.000557992
0.00107115
-0.000584456
0.00106863
-0.000610524
0.00106152
-0.000631471
0.00104087
-0.000639074
0.000997714
-0.000624876
-0.00058437
0.000928306
0.00092356
0.000150958
-0.000908589
0.000938379
0.000149156
0.000953035
0.000147192
0.000967518
0.000145069
0.000981815
0.000142782
0.000995914
0.000140324
0.0010098
0.000137686
0.00102347
0.000134861
0.0010369
0.000131841
0.00105008
0.000128618
0.001063
0.000125182
0.00107564
0.000121524
0.00108798
0.000117635
0.00110002
0.000113505
0.00111174
0.000109123
0.00112311
0.000104478
0.00113413
9.9561e-05
0.00114478
9.43593e-05
0.00115504
8.88619e-05
0.00116489
8.30567e-05
0.00117433
7.69318e-05
0.00118332
7.0475e-05
0.00119185
6.3674e-05
0.00119991
5.65166e-05
0.00120748
4.89904e-05
0.00121453
4.1083e-05