/*--------------------------------*- C++ -*----------------------------------*\
| =========                 |                                                 |
| \\      /  F ield         | OpenFOAM: The Open Source CFD Toolbox           |
|  \\    /   O peration     | Version:  2312                                  |
|   \\  /    A nd           | Website:  www.openfoam.com                      |
|    \\/     M anipulation  |                                                 |
\*---------------------------------------------------------------------------*/
FoamFile
{
    version     2.0;
    format      ascii;
    arch        "LSB;label=32;scalar=64";
    class       volVectorField;
    location    "700";
    object      U;
}
// * * * * * * * * * * * * * * * * * * * * * * * * * * * * * * * * * * * * * //

dimensions      [0 1 -1 0 0 0 0];

internalField   nonuniform List<vector> 
76025
(
(0.0373158 -0.0073685 0)
(0.0375079 -0.00742115 2.09137e-22)
(0.0377015 -0.00746939 0)
(0.0378978 -0.00751296 0)
(0.0380961 -0.00755435 -2.78532e-22)
(0.0383016 -0.00758227 -4.14589e-22)
(0.0385076 -0.00761239 6.42594e-22)
(0.038717 -0.00763185 -2.46548e-22)
(0.0389238 -0.00764981 -3.93726e-23)
(0.0391305 -0.00766159 1.50067e-23)
(0.0393399 -0.00766716 1.02817e-23)
(0.0395524 -0.00766419 -1.2454e-22)
(0.0397665 -0.00765842 1.58499e-22)
(0.0399788 -0.00764424 0)
(0.0401917 -0.00761935 -1.06999e-22)
(0.0404017 -0.00759687 0)
(0.0406133 -0.00755781 0)
(0.0408241 -0.00752182 0)
(0.041035 -0.0074718 -1.86338e-22)
(0.0412432 -0.00742202 2.31917e-22)
(0.0414503 -0.00735987 2.55922e-22)
(0.0416556 -0.00729445 8.23027e-22)
(0.0418563 -0.00722098 -5.65752e-22)
(0.0420558 -0.0071384 -9.89692e-22)
(0.0422535 -0.00705247 -4.61058e-23)
(0.0424489 -0.00696312 -4.27257e-22)
(0.0426423 -0.00685795 1.18314e-21)
(0.0428315 -0.00675083 -1.21847e-21)
(0.0430212 -0.00663337 4.26543e-22)
(0.0432064 -0.00650563 -4.48929e-22)
(0.0433835 -0.0063879 -4.75514e-22)
(0.0435586 -0.00625979 1.05021e-21)
(0.0437304 -0.00611586 -1.59503e-21)
(0.0438987 -0.00597451 -2.96027e-22)
(0.0440624 -0.00581956 1.48059e-21)
(0.0442214 -0.00566497 1.06492e-23)
(0.0443779 -0.00550132 -2.9872e-22)
(0.0445304 -0.0053276 1.59088e-22)
(0.0446773 -0.00515643 8.10013e-24)
(0.0448143 -0.00497556 -2.40667e-22)
(0.0449451 -0.00479173 1.60658e-22)
(0.0450743 -0.00459896 -7.96623e-23)
(0.0451955 -0.0043931 1.59329e-22)
(0.0453076 -0.00418893 -3.24716e-22)
(0.0454098 -0.00397581 -3.35686e-22)
(0.0455065 -0.00376138 6.40274e-22)
(0.0455937 -0.003534 6.66337e-22)
(0.0456685 -0.00330382 -2.01973e-21)
(0.0457316 -0.00306861 1.29824e-21)
(0.0457859 -0.0028294 -2.99558e-23)
(0.0458277 -0.00258395 -3.29945e-21)
(0.0458545 -0.00233081 -1.26839e-21)
(0.0458664 -0.00207257 1.31769e-21)
(0.0458597 -0.0018093 0)
(0.0458283 -0.00154075 -1.22141e-21)
(0.0457803 -0.00126869 -1.26309e-21)
(0.0457103 -0.000988736 2.30165e-23)
(0.045613 -0.000699895 -1.17927e-21)
(0.0454892 -0.000403613 1.11862e-21)
(0.0453357 -0.000104653 -3.18856e-21)
(0.045152 0.000185005 -2.11118e-21)
(0.0449161 0.00048894 -1.30956e-22)
(0.0446271 0.00079891 0)
(0.0442751 0.0011092 4.10628e-21)
(0.0438386 0.00141724 -1.35602e-21)
(0.0433095 0.00173141 6.91036e-22)
(0.0426887 0.00203431 -1.07251e-21)
(0.0419425 0.00229092 1.01855e-21)
(0.0410352 0.00248373 1.52962e-21)
(0.0372222 -0.00770995 2.35516e-22)
(0.0374226 -0.00776392 5.96044e-22)
(0.0376251 -0.00781268 -8.09769e-22)
(0.0378306 -0.00785636 0)
(0.0380381 -0.00789511 6.46628e-22)
(0.0382509 -0.00792677 -1.01706e-22)
(0.038465 -0.00795364 -4.01321e-22)
(0.0386821 -0.00797404 0)
(0.0389005 -0.00798894 9.95621e-24)
(0.0391194 -0.00799788 -1.54771e-23)
(0.0393393 -0.00800062 -9.70732e-24)
(0.0395607 -0.00799639 1.3561e-23)
(0.0397828 -0.00798605 0)
(0.0400061 -0.00796881 0)
(0.0402299 -0.0079438 -2.88237e-22)
(0.0404521 -0.00791379 6.81368e-22)
(0.0406749 -0.00787528 1.80716e-22)
(0.0408961 -0.0078315 -6.26173e-22)
(0.0411169 -0.00777976 4.19448e-22)
(0.0413358 -0.00772215 -2.38386e-22)
(0.0415537 -0.00765683 3.10778e-22)
(0.0417695 -0.00758505 -5.75922e-22)
(0.0419824 -0.00750608 6.77951e-22)
(0.042193 -0.00741936 -1.06929e-21)
(0.0424012 -0.00732604 7.32236e-22)
(0.0426068 -0.00722644 1.22519e-21)
(0.0428098 -0.00711886 -8.37267e-22)
(0.0430082 -0.0070051 0)
(0.043204 -0.00688373 0)
(0.0433966 -0.00675561 -5.25331e-22)
(0.0435855 -0.00662102 0)
(0.0437707 -0.0064804 -5.78625e-22)
(0.0439508 -0.00633233 5.98113e-22)
(0.0441258 -0.00617859 -9.18842e-22)
(0.0442959 -0.00601745 1.79721e-23)
(0.044461 -0.00585046 -3.17557e-22)
(0.0446219 -0.00567564 0)
(0.0447774 -0.0054961 -6.79783e-22)
(0.0449267 -0.00531169 5.17616e-22)
(0.045069 -0.00512103 -4.28721e-22)
(0.0452043 -0.00492291 2.61724e-22)
(0.0453334 -0.00471796 -2.28762e-24)
(0.0454548 -0.00450914 9.53109e-23)
(0.0455676 -0.00429481 -8.87875e-23)
(0.0456718 -0.0040735 7.31245e-22)
(0.0457674 -0.00384503 -3.68985e-22)
(0.0458532 -0.00361131 -3.82136e-22)
(0.0459278 -0.00337253 7.03724e-22)
(0.0459909 -0.00312552 2.16094e-21)
(0.0460426 -0.00287131 -1.50029e-23)
(0.0460812 -0.00261146 2.11824e-21)
(0.0461049 -0.00234523 -7.05669e-22)
(0.0461128 -0.00207316 -2.0583e-21)
(0.0461029 -0.00179556 1.37865e-21)
(0.046073 -0.00151175 0)
(0.0460217 -0.00121733 3.98454e-21)
(0.0459493 -0.000918009 -1.51924e-23)
(0.0458515 -0.000611122 -1.2715e-21)
(0.0457271 -0.000297747 -1.25979e-21)
(0.0455721 2.158e-05 0)
(0.0453784 0.000349773 1.0643e-21)
(0.0451373 0.000683543 3.09675e-21)
(0.0448358 0.00102626 0)
(0.0444622 0.00137613 -1.72803e-21)
(0.0440011 0.00173115 9.20918e-22)
(0.0434372 0.00209375 -1.45676e-21)
(0.0427677 0.00244748 6.78605e-22)
(0.0419733 0.00277696 -1.06819e-21)
(0.0410413 0.00308685 -8.57533e-22)
(0.037124 -0.00806855 -1.13369e-21)
(0.0373344 -0.00812304 6.97959e-22)
(0.0375472 -0.00817232 -1.8554e-22)
(0.0377632 -0.0082163 5.90826e-22)
(0.0379817 -0.00825435 -7.19429e-22)
(0.0382027 -0.00828621 -3.73952e-22)
(0.0384261 -0.00831185 4.47938e-22)
(0.038652 -0.00833124 0)
(0.0388802 -0.00834421 1.15779e-23)
(0.03911 -0.00835065 0)
(0.0393408 -0.00835045 3.62605e-23)
(0.0395723 -0.00834349 -4.89296e-23)
(0.0398045 -0.00832968 -4.78931e-22)
(0.0400372 -0.0083089 3.86869e-22)
(0.0402703 -0.00828095 -1.2881e-22)
(0.0405035 -0.00824596 -5.1185e-22)
(0.0407363 -0.00820381 1.74472e-22)
(0.0409683 -0.00815449 2.08721e-22)
(0.0411992 -0.0080981 7.77455e-22)
(0.0414286 -0.00803441 -5.19835e-22)
(0.0416562 -0.00796352 -3.13567e-22)
(0.0418817 -0.00788536 6.81082e-22)
(0.0421049 -0.00779983 -3.14068e-22)
(0.0423257 -0.00770674 -3.96526e-22)
(0.0425438 -0.00760635 0)
(0.0427587 -0.00749892 4.5192e-22)
(0.04297 -0.00738442 4.71599e-22)
(0.0431777 -0.00726265 -4.484e-22)
(0.0433818 -0.00713352 0)
(0.0435821 -0.00699741 1.08961e-21)
(0.0437786 -0.0068541 -5.89278e-22)
(0.0439704 -0.00670434 -3.57553e-23)
(0.0441571 -0.00654789 0)
(0.0443385 -0.00638456 3.17171e-22)
(0.0445146 -0.00621443 -1.01721e-21)
(0.0446851 -0.00603803 6.80076e-22)
(0.04485 -0.00585519 0)
(0.0450089 -0.0056664 5.35106e-22)
(0.0451616 -0.00547151 -5.43272e-22)
(0.0453071 -0.00527046 -8.92204e-23)
(0.0454453 -0.00506278 0)
(0.0455761 -0.00484886 -1.86839e-22)
(0.045699 -0.00462905 -9.47823e-23)
(0.0458135 -0.00440274 9.00766e-23)
(0.0459188 -0.0041699 -5.58569e-22)
(0.0460147 -0.0039306 -3.90709e-22)
(0.0461005 -0.00368515 7.42915e-22)
(0.0461753 -0.00343306 -7.64379e-22)
(0.0462384 -0.00317385 7.77383e-22)
(0.0462892 -0.0029079 -7.53242e-22)
(0.0463269 -0.00263548 -7.32469e-22)
(0.04635 -0.00235618 1.5315e-21)
(0.0463573 -0.00206983 0)
(0.0463473 -0.00177629 1.49746e-21)
(0.0463182 -0.00147496 4.5503e-23)
(0.0462688 -0.00116499 -1.40545e-21)
(0.0461979 -0.000847162 -1.36575e-21)
(0.0461024 -0.000520443 2.6688e-21)
(0.045979 -0.000184366 -4.81074e-23)
(0.0458219 0.000161473 1.2794e-21)
(0.0456227 0.000518133 -2.43707e-21)
(0.0453704 0.000886318 -1.21192e-21)
(0.0450515 0.00126744 -4.33252e-23)
(0.0446532 0.0016608 -9.79677e-22)
(0.0441629 0.00206394 -8.33325e-22)
(0.0435673 0.00247476 -2.50819e-21)
(0.0428593 0.00288495 0)
(0.0420229 0.00328481 -6.02668e-22)
(0.0410618 0.00367255 5.82408e-22)
(0.0370219 -0.00844642 0)
(0.0372433 -0.00850169 2.14585e-22)
(0.0374673 -0.00855141 8.69818e-22)
(0.0376944 -0.00859549 -6.80871e-22)
(0.0379241 -0.00863328 -3.23111e-22)
(0.038156 -0.00866451 5.47344e-22)
(0.0383902 -0.00868907 -7.54181e-23)
(0.0386264 -0.00870693 3.57114e-23)
(0.0388645 -0.00871794 1.94789e-23)
(0.0391043 -0.00872202 -1.17828e-22)
(0.0393454 -0.00871906 1.33167e-22)
(0.0395875 -0.00870898 3.46554e-22)
(0.0398303 -0.00869164 -2.33438e-23)
(0.0400734 -0.00866692 -5.17611e-22)
(0.0403167 -0.00863476 4.55932e-22)
(0.0405598 -0.00859514 -1.97743e-22)
(0.0408025 -0.00854804 2.2682e-22)
(0.0410444 -0.00849338 2.55881e-22)
(0.0412851 -0.00843119 -8.31384e-22)
(0.0415244 -0.00836141 2.58285e-22)
(0.0417618 -0.00828401 3.15579e-22)
(0.0419969 -0.00819899 0)
(0.0422296 -0.00810637 8.26241e-22)
(0.0424596 -0.00800617 -4.00426e-22)
(0.0426865 -0.00789845 -9.09495e-22)
(0.0429102 -0.0077833 -9.93635e-22)
(0.0431302 -0.0076607 1.96601e-21)
(0.0433463 -0.00753061 -1.05288e-21)
(0.0435583 -0.00739312 0)
(0.043766 -0.00724839 -1.16456e-21)
(0.0439691 -0.00709656 -2.97572e-23)
(0.0441672 -0.00693783 1.24418e-21)
(0.04436 -0.00677212 -6.76573e-22)
(0.0445474 -0.00659937 1.74263e-21)
(0.044729 -0.00641981 -3.36504e-22)
(0.0449046 -0.00623394 0)
(0.045074 -0.00604153 0)
(0.0452369 -0.0058427 1.93905e-22)
(0.045393 -0.00563753 1.86114e-22)
(0.0455418 -0.00542606 9.93566e-23)
(0.045683 -0.00520812 -3.13558e-24)
(0.0458163 -0.00498372 9.59829e-23)
(0.0459414 -0.00475295 0)
(0.0460577 -0.00451577 -1.03929e-23)
(0.0461647 -0.00427209 0)
(0.046262 -0.00402177 3.82915e-22)
(0.046349 -0.00376477 4.51718e-24)
(0.046425 -0.00350092 -1.22361e-21)
(0.0464893 -0.00322999 0)
(0.0465412 -0.00295182 -7.99692e-22)
(0.0465799 -0.00266634 7.90428e-22)
(0.0466043 -0.0023733 -1.53265e-21)
(0.0466132 -0.00207242 0)
(0.0466054 -0.0017634 -4.61329e-21)
(0.0465796 -0.00144571 4.20266e-23)
(0.0465341 -0.00111858 1.49298e-21)
(0.046467 -0.000781594 1.45438e-21)
(0.0463748 -0.000433842 0)
(0.0462524 -7.41297e-05 0)
(0.0460924 0.000298808 -1.2624e-21)
(0.0458848 0.000686581 2.39885e-21)
(0.0456179 0.00109028 2.26091e-21)
(0.0452791 0.00151071 0)
(0.0448561 0.0019477 -2.13691e-21)
(0.0443383 0.00239878 0)
(0.0437131 0.0028619 2.51969e-21)
(0.0429739 0.00333117 -8.34997e-22)
(0.0421064 0.00379893 -6.99501e-22)
(0.0411157 0.0042681 -7.12952e-22)
(0.0369145 -0.00884489 0)
(0.0371481 -0.00890116 0)
(0.0373841 -0.00895145 1.76445e-22)
(0.0376232 -0.00899568 -5.41074e-22)
(0.0378649 -0.0090332 6.54757e-22)
(0.0381089 -0.00906369 -9.48267e-23)
(0.0383549 -0.00908705 0)
(0.0386027 -0.0091032 -3.59674e-23)
(0.0388522 -0.00911209 0)
(0.039103 -0.0091136 9.07142e-23)
(0.0393551 -0.00910764 7.74453e-23)
(0.0396081 -0.0090941 -1.50564e-22)
(0.0398616 -0.00907287 0)
(0.0401155 -0.00904386 3.30527e-22)
(0.0403694 -0.00900699 -1.08238e-21)
(0.0406229 -0.00896223 8.16381e-22)
(0.0408758 -0.00890961 -1.18739e-21)
(0.0411277 -0.0088491 2.52151e-22)
(0.0413783 -0.00878068 -3.13685e-22)
(0.0416273 -0.00870427 3.15661e-22)
(0.0418743 -0.00861989 3.71815e-22)
(0.0421189 -0.00852762 -1.15145e-21)
(0.0423609 -0.00842748 -8.3681e-22)
(0.0425998 -0.0083195 0)
(0.0428355 -0.00820374 9.79743e-22)
(0.0430675 -0.00808022 5.43469e-22)
(0.0432957 -0.007949 -1.5585e-21)
(0.0435197 -0.00781013 5.4567e-22)
(0.0437392 -0.00766372 -1.20993e-21)
(0.043954 -0.00750988 1.81818e-21)
(0.0441637 -0.00734872 -6.70557e-22)
(0.0443681 -0.00718035 3.49895e-22)
(0.044567 -0.00700483 0)
(0.04476 -0.00682216 -3.57671e-22)
(0.0449469 -0.00663271 -3.68624e-22)
(0.0451273 -0.00643681 0)
(0.0453012 -0.0062343 4.03705e-22)
(0.0454681 -0.00602522 -5.96629e-22)
(0.0456279 -0.00580967 3.98492e-22)
(0.0457801 -0.00558764 -2.04155e-22)
(0.0459244 -0.0053591 -3.47905e-24)
(0.0460606 -0.00512403 -1.59046e-22)
(0.0461882 -0.00488243 5.17956e-23)
(0.0463068 -0.00463428 2.04841e-22)
(0.0464161 -0.00437945 8.64283e-24)
(0.0465154 -0.0041178 1.26649e-21)
(0.0466044 -0.00384921 0)
(0.0466824 -0.00357351 8.24409e-22)
(0.0467488 -0.00329046 -1.98379e-23)
(0.046803 -0.0029998 -8.36956e-22)
(0.0468441 -0.00270132 0)
(0.0468714 -0.0023947 -8.29704e-22)
(0.0468839 -0.00207956 8.18909e-22)
(0.0468804 -0.00175537 1.57594e-21)
(0.0468596 -0.00142145 0)
(0.0468193 -0.00107687 -3.07477e-21)
(0.0467566 -0.000720538 3.04428e-21)
(0.0466667 -0.000351043 -2.95405e-21)
(0.0465428 3.34121e-05 -3.91948e-23)
(0.0463762 0.000434631 0)
(0.0461563 0.000854435 -1.28828e-21)
(0.0458721 0.00129406 1.18506e-21)
(0.0455118 0.0017542 1.24591e-21)
(0.0450652 0.00223486 2.10906e-21)
(0.0445231 0.00273393 -3.16875e-21)
(0.0438738 0.00325036 1.93463e-21)
(0.0431117 0.00377945 -9.34052e-22)
(0.0422214 0.00431479 1.00426e-21)
(0.0412111 0.00486328 2.23637e-21)
(0.0368002 -0.00926571 -8.656e-22)
(0.0370472 -0.00932294 1.22457e-22)
(0.0372965 -0.00937375 7.49286e-22)
(0.0375488 -0.00941807 0)
(0.0378036 -0.0094552 -1.15577e-22)
(0.0380604 -0.00948484 0)
(0.0383192 -0.00950685 6.36015e-23)
(0.0385798 -0.00952118 -6.31784e-23)
(0.0388418 -0.00952772 2.42004e-23)
(0.039105 -0.00952637 -5.68134e-23)
(0.0393691 -0.00951708 -6.99123e-23)
(0.0396339 -0.00949968 -1.21289e-22)
(0.039899 -0.00947415 0)
(0.0401643 -0.00944042 0)
(0.0404293 -0.00939841 1.93019e-22)
(0.0406939 -0.00934809 2.23648e-22)
(0.0409575 -0.00928951 -5.64837e-22)
(0.0412199 -0.00922265 5.65039e-22)
(0.0414807 -0.0091475 6.59839e-22)
(0.0417397 -0.00906399 -7.50396e-22)
(0.0419965 -0.00897213 1.53123e-21)
(0.0422507 -0.00887203 2.66637e-23)
(0.0425019 -0.00876378 -9.08565e-22)
(0.0427498 -0.00864738 -5.01073e-22)
(0.0429941 -0.00852289 -1.05398e-21)
(0.0432345 -0.00839039 1.05706e-21)
(0.0434706 -0.00824995 1.17347e-21)
(0.0437023 -0.00810168 -1.17784e-21)
(0.043929 -0.00794568 0)
(0.0441507 -0.00778206 0)
(0.044367 -0.00761095 1.73355e-21)
(0.0445776 -0.00743247 4.72052e-23)
(0.0447823 -0.00724672 -7.38391e-22)
(0.0449807 -0.0070537 -7.92235e-22)
(0.0451727 -0.00685396 7.88882e-22)
(0.0453579 -0.00664763 0)
(0.0455361 -0.0064346 -4.02833e-22)
(0.0457071 -0.00621491 -6.40679e-22)
(0.0458706 -0.00598864 4.20195e-22)
(0.0460263 -0.0057558 -5.82482e-24)
(0.0461738 -0.00551639 -3.41987e-23)
(0.046313 -0.0052704 1.60671e-22)
(0.0464434 -0.00501778 1.13065e-22)
(0.0465647 -0.00475848 2.22795e-22)
(0.0466765 -0.00449238 -1.09997e-21)
(0.0467784 -0.00421933 8.24618e-24)
(0.04687 -0.00393916 0)
(0.0469507 -0.00365166 -9.13953e-22)
(0.0470202 -0.00335654 2.6676e-21)
(0.0470777 -0.00305353 -1.78821e-21)
(0.0471227 -0.00274226 -8.80449e-22)
(0.0471545 -0.00242233 -2.67661e-23)
(0.0471722 -0.00209318 -8.38543e-22)
(0.0471744 -0.00175406 -1.62793e-24)
(0.0471593 -0.00140398 1.67054e-21)
(0.0471238 -0.00104163 -1.68501e-21)
(0.0470636 -0.000665365 -1.58856e-21)
(0.0469725 -0.00027325 3.08822e-21)
(0.0468426 0.000136875 -5.22304e-23)
(0.0466648 0.00056702 1.42018e-21)
(0.0464289 0.00101908 -1.37955e-21)
(0.0461254 0.00149424 1.25935e-21)
(0.0457444 0.0019934 -2.39361e-21)
(0.0452775 0.00251685 -1.16291e-21)
(0.0447164 0.00306319 2.19614e-21)
(0.0440504 0.00363312 -1.16953e-21)
(0.0432748 0.00422255 -3.17208e-21)
(0.0423716 0.00482696 -8.42352e-22)
(0.041348 0.00546035 0)
(0.0366791 -0.00971077 0)
(0.0369404 -0.0097688 -1.94731e-22)
(0.037204 -0.00981994 -9.16046e-24)
(0.0374706 -0.00986413 0)
(0.0377394 -0.0099007 0)
(0.0380103 -0.00992928 -5.89987e-23)
(0.0382829 -0.00994975 5.84951e-23)
(0.0385572 -0.00996203 -4.3788e-25)
(0.0388328 -0.00996597 -1.45432e-23)
(0.0391095 -0.00996147 5.70105e-23)
(0.0393868 -0.00994846 0)
(0.0396643 -0.00992694 1.21663e-22)
(0.0399419 -0.00989678 -1.78149e-22)
(0.0402194 -0.00985794 0)
(0.0404964 -0.00981034 0)
(0.0407727 -0.00975401 2.81192e-22)
(0.0410478 -0.00968895 6.49621e-23)
(0.0413214 -0.00961521 -6.24987e-22)
(0.0415931 -0.00953279 -7.21633e-22)
(0.0418625 -0.00944163 7.54639e-22)
(0.0421295 -0.00934172 4.09004e-22)
(0.0423936 -0.00923317 1.86149e-21)
(0.0426543 -0.00911609 3.30025e-23)
(0.0429114 -0.00899058 -5.68302e-22)
(0.0431644 -0.00885671 1.07285e-21)
(0.0434132 -0.00871458 -5.90472e-22)
(0.0436573 -0.0085643 1.19805e-21)
(0.0438965 -0.00840598 0)
(0.0441305 -0.00823975 0)
(0.044359 -0.00806575 0)
(0.0445818 -0.00788411 -3.5723e-22)
(0.0447984 -0.00769498 -7.55999e-22)
(0.0450087 -0.00749846 7.83721e-22)
(0.0452125 -0.0072946 8.38918e-22)
(0.0454094 -0.00708408 -8.32708e-22)
(0.0455992 -0.00686684 0)
(0.0457818 -0.00664284 4.4152e-22)
(0.0459567 -0.00641214 -2.21704e-22)
(0.0461239 -0.00617481 0)
(0.046283 -0.00593087 2.26395e-22)
(0.0464338 -0.00568034 -4.26793e-23)
(0.046576 -0.0054232 2.84781e-23)
(0.0467094 -0.00515939 -1.1272e-22)
(0.0468336 -0.00488883 0)
(0.0469483 -0.00461141 -4.69573e-22)
(0.0470532 -0.00432696 4.64271e-22)
(0.047148 -0.00403527 0)
(0.0472323 -0.0037361 -2.81661e-23)
(0.0473057 -0.00342913 1.92911e-23)
(0.0473678 -0.00311401 9.03325e-22)
(0.0474179 -0.00279027 0)
(0.0474554 -0.00245734 -4.96606e-23)
(0.047479 -0.0021144 -8.77909e-22)
(0.0474868 -0.0017604 -2.69189e-21)
(0.0474759 -0.00139395 -5.28331e-23)
(0.0474422 -0.00101328 1.65697e-21)
(0.0473799 -0.000616361 0)
(0.0472822 -0.000200978 0)
(0.0471408 0.000235127 1.60594e-21)
(0.0469474 0.000693933 0)
(0.0466934 0.00117733 0)
(0.046371 0.00168655 -6.64165e-23)
(0.0459721 0.00222299 -1.34212e-21)
(0.0454905 0.00278742 -2.59974e-21)
(0.0449176 0.00337962 2.55205e-21)
(0.0442443 0.00400243 -2.42807e-22)
(0.043466 0.00465174 1.07058e-21)
(0.0425616 0.00532652 1.18145e-21)
(0.0415378 0.00604733 0)
(0.0365518 -0.0101824 0)
(0.0368281 -0.010241 1.95218e-22)
(0.0371067 -0.0102922 -4.40158e-22)
(0.0373885 -0.0103361 1.63033e-22)
(0.0376724 -0.0103719 0)
(0.0379582 -0.0103992 1.28213e-22)
(0.0382457 -0.0104177 -9.33678e-23)
(0.0385347 -0.0104276 6.96853e-23)
(0.0388249 -0.0104285 -2.53108e-22)
(0.0391159 -0.0104205 4.0517e-23)
(0.0394074 -0.0104033 -1.34541e-22)
(0.039699 -0.0103771 -1.69819e-22)
(0.0399902 -0.0103419 5.94398e-22)
(0.0402808 -0.0102975 -9.00373e-22)
(0.0405706 -0.010244 4.84566e-22)
(0.0408593 -0.0101812 -3.42184e-22)
(0.0411467 -0.0101091 1.31058e-21)
(0.0414322 -0.0100279 -3.09793e-22)
(0.0417154 -0.00993754 4.44717e-22)
(0.041996 -0.00983801 -3.81824e-22)
(0.0422737 -0.00972939 6.53166e-23)
(0.042548 -0.00961174 -2.9706e-21)
(0.0428186 -0.0094852 -5.7232e-22)
(0.0430852 -0.0093499 -6.27684e-23)
(0.0433473 -0.00920595 1.76841e-21)
(0.0436046 -0.0090535 -6.03935e-22)
(0.0438569 -0.00889267 1.34243e-21)
(0.0441039 -0.00872362 -2.05891e-21)
(0.0443451 -0.00854649 0)
(0.0445805 -0.00836144 -7.64904e-22)
(0.0448096 -0.00816864 7.68285e-22)
(0.0450322 -0.00796824 2.48864e-23)
(0.0452481 -0.00776039 -4.35313e-22)
(0.0454572 -0.00754518 -4.50391e-22)
(0.0456589 -0.00732334 1.36075e-21)
(0.0458532 -0.0070947 -8.92947e-22)
(0.0460399 -0.00685929 7.00823e-22)
(0.0462187 -0.00661719 -9.2997e-22)
(0.0463895 -0.00636845 4.65377e-22)
(0.0465521 -0.00611314 -1.15698e-22)
(0.0467061 -0.00585126 0)
(0.0468515 -0.00558279 1.21718e-22)
(0.046988 -0.00530768 -1.20394e-22)
(0.0471153 -0.00502583 -2.45629e-22)
(0.0472334 -0.00473713 7.35274e-22)
(0.0473419 -0.00444138 -4.97247e-22)
(0.0474406 -0.00413837 -4.86952e-22)
(0.0475293 -0.00382781 0)
(0.0476076 -0.00350932 -1.98051e-21)
(0.047675 -0.00318242 1.938e-21)
(0.0477309 -0.00284649 -9.34158e-22)
(0.0477739 -0.00250068 9.21497e-22)
(0.0478021 -0.00214388 9.62051e-22)
(0.0478128 -0.00177465 1.82067e-21)
(0.0478018 -0.00139123 1.76071e-21)
(0.0477641 -0.000991594 0)
(0.0476933 -0.000573544 -1.77471e-21)
(0.0475827 -0.000134896 0)
(0.0474251 0.000326501 4.44813e-23)
(0.0472136 0.000812525 -1.50956e-21)
(0.0469416 0.00132517 1.52271e-21)
(0.0466032 0.00186587 1.41689e-21)
(0.0461917 0.00243687 -1.48823e-21)
(0.0457026 0.00303952 -4.28347e-23)
(0.0451269 0.00367544 7.30764e-23)
(0.0444578 0.00434941 3.99535e-21)
(0.043689 0.00505707 1.42038e-21)
(0.0427991 0.00580428 1.33663e-21)
(0.0417954 0.00661425 -1.36173e-21)
(0.0364192 -0.010683 0)
(0.0367111 -0.010742 0)
(0.0370054 -0.0107932 -2.53668e-22)
(0.0373032 -0.0108364 3.67839e-22)
(0.0376032 -0.0108709 6.28637e-23)
(0.0379048 -0.0108964 0)
(0.0382079 -0.0109127 0)
(0.0385125 -0.0109197 4.92951e-23)
(0.0388181 -0.0109173 -1.8492e-22)
(0.0391244 -0.0109053 -9.76185e-23)
(0.039431 -0.0108837 7.21781e-22)
(0.0397376 -0.0108524 -1.59495e-22)
(0.0400437 -0.0108114 2.39193e-22)
(0.0403487 -0.0107608 -4.73024e-22)
(0.0406523 -0.0107006 3.07361e-22)
(0.0409542 -0.0106307 0)
(0.0412544 -0.0105511 0)
(0.0415524 -0.0104618 3.24362e-23)
(0.0418477 -0.0103628 -1.27969e-21)
(0.0421402 -0.0102542 4.47687e-22)
(0.0424293 -0.0101361 -5.2239e-22)
(0.0427145 -0.0100085 5.1496e-22)
(0.0429955 -0.00987179 5.78357e-22)
(0.0432719 -0.00972596 -5.45897e-22)
(0.0435433 -0.00957121 -6.13853e-22)
(0.0438096 -0.00940769 0)
(0.0440703 -0.00923558 0)
(0.0443251 -0.00905506 1.09037e-21)
(0.0445737 -0.00886631 0)
(0.044816 -0.00866953 8.12342e-22)
(0.0450515 -0.00846489 -8.1566e-22)
(0.0452801 -0.00825259 -4.18148e-22)
(0.0455016 -0.00803278 4.33585e-22)
(0.0457158 -0.00780573 9.21697e-22)
(0.0459222 -0.00757201 -4.55161e-22)
(0.046121 -0.00733149 -4.81419e-22)
(0.0463117 -0.00708423 4.90307e-22)
(0.0464944 -0.00683034 0)
(0.0466688 -0.0065699 0)
(0.0468348 -0.00630296 1.28195e-22)
(0.0469922 -0.00602955 0)
(0.0471409 -0.00574965 0)
(0.0472808 -0.00546321 -3.86892e-22)
(0.0474117 -0.00517014 5.15614e-22)
(0.0475336 -0.00487031 -2.62903e-22)
(0.0476463 -0.0045635 4.98962e-22)
(0.0477496 -0.00424945 0)
(0.0478433 -0.00392779 1.5497e-21)
(0.0479267 -0.00359802 -2.10018e-23)
(0.0479992 -0.00325948 0)
(0.0480594 -0.00291127 -2.00022e-21)
(0.0481052 -0.00255226 -2.51754e-23)
(0.0481339 -0.00218101 -1.91589e-21)
(0.0481416 -0.00179581 -9.82586e-22)
(0.0481236 -0.00139476 -1.8717e-21)
(0.0480746 -0.000975825 1.82434e-21)
(0.0479888 -0.000536948 1.72866e-21)
(0.0478605 -7.61344e-05 0)
(0.0476841 0.000408614 -1.68315e-21)
(0.0474546 0.00091918 5.57066e-23)
(0.0471673 0.00145783 0)
(0.046818 0.00202645 0)
(0.046401 0.00262841 1.48714e-21)
(0.0459133 0.00326559 0)
(0.0453453 0.00394227 0)
(0.0446934 0.00466402 -1.54874e-21)
(0.0439486 0.00542746 -1.40216e-21)
(0.0430946 0.00624689 -1.71588e-21)
(0.042134 0.00714068 0)
(0.0362822 -0.0112151 0)
(0.0365906 -0.0112744 0)
(0.0369014 -0.0113252 0)
(0.0372156 -0.0113675 8.33465e-23)
(0.0375323 -0.0114004 7.67594e-24)
(0.0378507 -0.0114237 -7.631e-23)
(0.0381707 -0.0114373 6.0476e-24)
(0.0384918 -0.011441 -4.92109e-23)
(0.0388138 -0.0114346 1.12225e-22)
(0.0391362 -0.0114182 2.74623e-22)
(0.0394587 -0.0113915 0)
(0.039781 -0.0113546 0)
(0.0401026 -0.0113074 -3.53112e-23)
(0.040423 -0.0112499 8.39443e-22)
(0.0407417 -0.011182 -1.33196e-21)
(0.041058 -0.0111041 -7.37217e-23)
(0.0413717 -0.0110162 7.56093e-22)
(0.0416828 -0.010918 4.14244e-22)
(0.0419908 -0.0108098 -4.1601e-23)
(0.0422956 -0.0106914 0)
(0.0425966 -0.010563 1.08586e-21)
(0.0428932 -0.0104247 0)
(0.0431851 -0.0102769 1.22618e-21)
(0.0434719 -0.0101197 -1.94921e-21)
(0.0437532 -0.00995327 2.0342e-21)
(0.0440286 -0.00977787 7.40907e-22)
(0.044298 -0.00959367 -1.15099e-21)
(0.0445609 -0.00940089 1.18374e-21)
(0.0448172 -0.00919974 -7.98761e-22)
(0.0450664 -0.00899047 0)
(0.0453085 -0.00877328 -8.93186e-22)
(0.0455431 -0.00854841 -4.9835e-22)
(0.0457702 -0.00831601 9.28945e-22)
(0.0459894 -0.00807656 -9.68533e-22)
(0.0462006 -0.00783042 4.9781e-22)
(0.0464037 -0.00757753 -4.92895e-22)
(0.0465986 -0.00731801 -2.45935e-22)
(0.0467852 -0.007052 2.634e-22)
(0.0469632 -0.00677958 1.28e-22)
(0.0471328 -0.00650083 -3.85186e-22)
(0.0472938 -0.00621579 -3.37735e-23)
(0.0474461 -0.00592445 0)
(0.0475898 -0.00562676 1.29275e-22)
(0.0477248 -0.00532262 -2.59335e-22)
(0.047851 -0.00501184 2.59698e-22)
(0.0479682 -0.00469417 0)
(0.048076 -0.00436922 0)
(0.0481739 -0.00403649 5.48322e-22)
(0.0482609 -0.00369526 -1.04678e-21)
(0.0483355 -0.00334462 -2.11913e-21)
(0.0483956 -0.00298343 4.1265e-21)
(0.0484383 -0.00261032 -1.04321e-21)
(0.0484602 -0.0022237 9.97332e-22)
(0.048457 -0.00182186 9.55473e-22)
(0.0484242 -0.00140303 -1.92674e-21)
(0.0483573 -0.000965414 1.87868e-21)
(0.0482517 -0.000507216 0)
(0.0481033 -2.66389e-05 -1.85682e-21)
(0.0479084 0.000478277 5.9308e-23)
(0.0476639 0.0010096 1.73101e-21)
(0.0473664 0.00157006 0)
(0.047013 0.00216216 0)
(0.0465993 0.00279061 0)
(0.0461228 0.00345779 3.43594e-21)
(0.0455748 0.00417132 1.78042e-21)
(0.0449541 0.00493552 1.65221e-21)
(0.0442512 0.00575161 -3.56164e-21)
(0.0434594 0.00663847 -2.17663e-22)
(0.0425977 0.00761252 2.12281e-21)
(0.036141 -0.0117817 0)
(0.036467 -0.0118409 2.68406e-22)
(0.0367956 -0.011891 -3.19799e-22)
(0.0371276 -0.011932 5.73023e-23)
(0.0374617 -0.011963 -1.3064e-22)
(0.0377975 -0.0119839 1.83318e-23)
(0.0381349 -0.0119943 5.91329e-23)
(0.0384735 -0.011994 0)
(0.0388129 -0.0119831 -2.52128e-22)
(0.0391524 -0.0119615 -3.37858e-22)
(0.0394916 -0.0119291 3.67992e-22)
(0.0398304 -0.0118859 -2.6136e-22)
(0.0401683 -0.0118317 3.37571e-22)
(0.0405047 -0.0117665 -2.2522e-22)
(0.0408392 -0.0116904 -1.47361e-21)
(0.0411712 -0.0116034 -7.64782e-23)
(0.0414998 -0.0115059 -7.56782e-23)
(0.0418248 -0.0113979 9.05917e-22)
(0.0421461 -0.0112794 4.88348e-22)
(0.0424636 -0.0111505 1.13053e-21)
(0.0427769 -0.011011 -1.08425e-21)
(0.0430855 -0.0108612 0)
(0.0433888 -0.0107015 5.06533e-23)
(0.0436864 -0.010532 0)
(0.0439779 -0.0103531 -7.02092e-22)
(0.044263 -0.0101649 -7.36141e-22)
(0.0445414 -0.00996776 3.84908e-22)
(0.0448127 -0.00976185 0)
(0.0450767 -0.00954748 4.46656e-22)
(0.0453331 -0.00932491 9.11018e-22)
(0.0455818 -0.00909442 -9.14031e-22)
(0.0458226 -0.00885627 4.66324e-22)
(0.0460553 -0.00861064 -1.00661e-21)
(0.0462797 -0.0083582 2.00594e-21)
(0.0464957 -0.0080991 -5.08409e-22)
(0.0467033 -0.00783338 0)
(0.0469024 -0.00756123 -2.7231e-22)
(0.047093 -0.0072828 1.52e-23)
(0.047275 -0.00699819 4.03563e-22)
(0.0474484 -0.00670752 -3.37916e-22)
(0.0476132 -0.0064108 6.59203e-23)
(0.0477695 -0.00610804 -2.09224e-22)
(0.0479172 -0.00579914 1.36834e-22)
(0.0480562 -0.00548394 0)
(0.0481861 -0.00516217 0)
(0.0483065 -0.00483344 0)
(0.0484167 -0.0044972 5.64207e-22)
(0.0485155 -0.00415271 5.60752e-22)
(0.0486012 -0.00379908 0)
(0.0486716 -0.00343519 1.06845e-21)
(0.048724 -0.00305981 1.10967e-21)
(0.0487552 -0.00267155 1.07099e-21)
(0.0487617 -0.00226897 0)
(0.0487398 -0.00185061 0)
(0.048686 -0.00141498 -1.97996e-21)
(0.048597 -0.00096061 1.93482e-21)
(0.04847 -0.000485924 0)
(0.0483025 1.08143e-05 1.81994e-21)
(0.0480924 0.000531683 -1.79438e-21)
(0.0478379 0.0010791 -1.89571e-21)
(0.0475369 0.00165637 1.82595e-21)
(0.0471876 0.00226677 -1.82843e-21)
(0.0467869 0.00291638 0)
(0.0463328 0.00360814 -1.80508e-21)
(0.0458193 0.0043532 7.92507e-23)
(0.0452463 0.00515314 -4.12433e-21)
(0.0446122 0.00601993 -4.41926e-21)
(0.0439203 0.00696454 4.48803e-21)
(0.0432256 0.00802884 -2.29158e-21)
(0.0359955 -0.0123857 8.18275e-23)
(0.0363405 -0.0124445 0)
(0.0366879 -0.0124936 5.18315e-23)
(0.0370388 -0.0125329 -9.58498e-23)
(0.0373922 -0.0125615 6.85462e-23)
(0.0377469 -0.0125792 6.78967e-25)
(0.0381026 -0.0125859 -5.8605e-23)
(0.0384594 -0.0125813 2.67231e-22)
(0.038817 -0.0125652 -1.27503e-22)
(0.0391747 -0.0125377 -1.79364e-22)
(0.0395317 -0.0124989 -2.5511e-22)
(0.0398877 -0.0124486 8.52576e-22)
(0.0402426 -0.0123866 -2.54939e-22)
(0.0405957 -0.0123131 1.13259e-21)
(0.0409466 -0.0122279 4.56397e-22)
(0.0412948 -0.0121311 7.90847e-23)
(0.0416394 -0.012023 -9.09741e-22)
(0.0419797 -0.0119042 0)
(0.0423156 -0.0117746 0)
(0.0426466 -0.0116341 -6.17199e-22)
(0.0429728 -0.0114826 -6.04327e-22)
(0.0432939 -0.0113203 -1.36877e-21)
(0.0436091 -0.0111475 6.92508e-22)
(0.0439179 -0.0109647 1.51298e-21)
(0.0442199 -0.0107722 -1.51471e-21)
(0.0445149 -0.0105702 4.20325e-22)
(0.0448025 -0.010359 4.37934e-22)
(0.0450824 -0.010139 0)
(0.0453544 -0.00991053 -4.41841e-22)
(0.0456183 -0.00967382 -9.60799e-22)
(0.0458738 -0.00942924 -2.95998e-23)
(0.0461209 -0.00917706 9.96156e-22)
(0.0463594 -0.00891759 -5.37471e-22)
(0.0465892 -0.00865154 0)
(0.0468102 -0.00837894 2.77057e-22)
(0.0470225 -0.00809996 -2.80532e-22)
(0.047226 -0.00781481 2.6763e-22)
(0.0474208 -0.00752366 -5.56599e-22)
(0.0476068 -0.00722665 0)
(0.0477841 -0.00692385 -7.25669e-23)
(0.0479526 -0.00661526 7.09454e-23)
(0.0481122 -0.00630082 -1.10599e-22)
(0.0482627 -0.00598035 4.28187e-22)
(0.0484037 -0.00565356 -8.56043e-22)
(0.0485345 -0.00532003 5.64494e-22)
(0.048654 -0.00497919 5.69358e-22)
(0.0487611 -0.00463033 -5.29414e-22)
(0.0488538 -0.00427259 1.15167e-21)
(0.0489301 -0.003905 -1.09959e-21)
(0.0489874 -0.00352648 -2.72283e-21)
(0.0490231 -0.00313592 2.30675e-23)
(0.0490343 -0.00273218 -1.03485e-21)
(0.0490183 -0.00231415 0)
(0.0489725 -0.0018807 0)
(0.0488948 -0.00143066 -2.03687e-21)
(0.0487832 -0.00096276 2.97587e-21)
(0.0486365 -0.000475515 -1.97658e-21)
(0.0484534 3.28881e-05 0)
(0.0482333 0.000564758 2.01995e-21)
(0.0479754 0.00112295 3.85967e-21)
(0.0476788 0.00171136 -1.90426e-21)
(0.0473427 0.00233415 -6.64554e-24)
(0.0469659 0.00299857 2.0466e-21)
(0.0465471 0.00370838 -8.04941e-23)
(0.046086 0.00447743 -4.45627e-21)
(0.0455859 0.00530656 4.59723e-21)
(0.045064 0.00621944 2.44258e-21)
(0.0445324 0.00721521 0)
(0.0441116 0.00838471 0)
(0.0358466 -0.0130304 -8.06768e-23)
(0.0362117 -0.0130886 -2.38008e-22)
(0.0365792 -0.0131364 1.86107e-22)
(0.0369502 -0.0131737 0)
(0.0373236 -0.0131996 -9.66353e-25)
(0.0376987 -0.0132136 -1.58198e-22)
(0.0380747 -0.0132157 9.89292e-23)
(0.0384513 -0.013206 -4.10208e-22)
(0.0388281 -0.0131842 3.2875e-22)
(0.0392049 -0.0131502 0)
(0.0395809 -0.0131039 1.06152e-22)
(0.0399555 -0.0130455 0)
(0.0403284 -0.0129749 4.15623e-22)
(0.0406991 -0.012892 -1.12257e-21)
(0.0410671 -0.0127969 0)
(0.041432 -0.0126896 0)
(0.0417933 -0.0125703 0)
(0.0421499 -0.0124394 -8.59036e-22)
(0.0425012 -0.0122972 1.15008e-21)
(0.0428468 -0.0121438 6.08358e-22)
(0.0431867 -0.0119791 0)
(0.0435206 -0.0118032 0)
(0.043848 -0.0116164 0)
(0.0441685 -0.0114193 -2.01637e-21)
(0.0444817 -0.0112121 2.44898e-21)
(0.0447871 -0.0109952 -1.25506e-21)
(0.0450845 -0.0107691 -8.94798e-22)
(0.0453735 -0.010534 9.43319e-22)