/*--------------------------------*- C++ -*----------------------------------*\
| =========                 |                                                 |
| \\      /  F ield         | OpenFOAM: The Open Source CFD Toolbox           |
|  \\    /   O peration     | Version:  2312                                  |
|   \\  /    A nd           | Website:  www.openfoam.com                      |
|    \\/     M anipulation  |                                                 |
\*---------------------------------------------------------------------------*/
FoamFile
{
    version     2.0;
    format      ascii;
    arch        "LSB;label=32;scalar=64";
    class       volScalarField;
    location    "1600";
    object      nut;
}
// * * * * * * * * * * * * * * * * * * * * * * * * * * * * * * * * * * * * * //

dimensions      [0 2 -1 0 0 0 0];

internalField   nonuniform List<scalar> 
76025
(
6.15543e-06
6.15592e-06
6.1544e-06
6.15095e-06
6.15426e-06
6.15883e-06
6.16852e-06
6.17803e-06
6.18499e-06
6.19048e-06
6.1952e-06
6.19897e-06
6.20171e-06
6.20212e-06
6.20063e-06
6.20002e-06
6.19987e-06
6.20125e-06
6.20102e-06
6.20207e-06
6.20096e-06
6.20031e-06
6.2002e-06
6.20553e-06
6.21413e-06
6.22294e-06
6.23586e-06
6.24829e-06
6.26136e-06
6.2761e-06
6.29192e-06
6.30422e-06
6.31901e-06
6.33077e-06
6.34298e-06
6.35231e-06
6.3617e-06
6.37486e-06
6.3864e-06
6.39718e-06
6.40673e-06
6.41631e-06
6.42914e-06
6.43891e-06
6.44743e-06
6.4538e-06
6.46087e-06
6.46368e-06
6.46207e-06
6.45585e-06
6.44537e-06
6.43186e-06
6.41494e-06
6.39575e-06
6.37643e-06
6.3564e-06
6.33872e-06
6.32396e-06
6.30997e-06
6.30364e-06
6.30475e-06
6.313e-06
6.33435e-06
6.36219e-06
6.393e-06
6.42683e-06
6.4618e-06
6.49145e-06
6.51536e-06
6.14025e-06
6.15036e-06
6.15631e-06
6.15737e-06
6.15753e-06
6.15697e-06
6.15958e-06
6.16511e-06
6.1723e-06
6.17968e-06
6.18672e-06
6.1932e-06
6.19922e-06
6.20468e-06
6.20774e-06
6.2096e-06
6.20993e-06
6.21032e-06
6.21016e-06
6.21019e-06
6.20949e-06
6.20826e-06
6.20659e-06
6.20213e-06
6.1987e-06
6.19686e-06
6.19713e-06
6.19928e-06
6.20263e-06
6.20712e-06
6.21648e-06
6.22701e-06
6.23808e-06
6.24882e-06
6.25909e-06
6.26855e-06
6.27689e-06
6.28456e-06
6.29146e-06
6.29742e-06
6.3022e-06
6.30552e-06
6.30741e-06
6.30769e-06
6.30624e-06
6.30299e-06
6.29775e-06
6.28797e-06
6.27765e-06
6.26694e-06
6.2572e-06
6.24954e-06
6.24687e-06
6.2481e-06
6.25367e-06
6.26266e-06
6.27487e-06
6.29026e-06
6.3086e-06
6.32984e-06
6.35361e-06
6.3793e-06
6.40612e-06
6.43318e-06
6.45955e-06
6.48422e-06
6.5063e-06
6.52487e-06
6.54303e-06
6.10113e-06
6.11846e-06
6.13398e-06
6.14574e-06
6.15348e-06
6.15777e-06
6.16017e-06
6.16249e-06
6.16595e-06
6.17075e-06
6.17654e-06
6.1829e-06
6.18951e-06
6.19633e-06
6.20286e-06
6.20857e-06
6.21308e-06
6.21643e-06
6.21883e-06
6.22047e-06
6.22151e-06
6.22202e-06
6.22211e-06
6.22113e-06
6.21913e-06
6.21649e-06
6.21355e-06
6.211e-06
6.20793e-06
6.20231e-06
6.19801e-06
6.19562e-06
6.19481e-06
6.19522e-06
6.1964e-06
6.19802e-06
6.19979e-06
6.20148e-06
6.20293e-06
6.20397e-06
6.20447e-06
6.20486e-06
6.20524e-06
6.2057e-06
6.20634e-06
6.20727e-06
6.20861e-06
6.21056e-06
6.21516e-06
6.2224e-06
6.23174e-06
6.2426e-06
6.25518e-06
6.26934e-06
6.28508e-06
6.30238e-06
6.32113e-06
6.34113e-06
6.3621e-06
6.38369e-06
6.40546e-06
6.4269e-06
6.44746e-06
6.46658e-06
6.48371e-06
6.49841e-06
6.51028e-06
6.51885e-06
6.52484e-06
6.06374e-06
6.07408e-06
6.08669e-06
6.10364e-06
6.12092e-06
6.13535e-06
6.14625e-06
6.15407e-06
6.15985e-06
6.16471e-06
6.16945e-06
6.1745e-06
6.17998e-06
6.18591e-06
6.19233e-06
6.199e-06
6.20562e-06
6.21183e-06
6.21742e-06
6.22226e-06
6.22635e-06
6.22974e-06
6.23253e-06
6.23477e-06
6.23639e-06
6.23731e-06
6.23751e-06
6.23721e-06
6.23642e-06
6.23474e-06
6.2324e-06
6.22985e-06
6.22745e-06
6.22542e-06
6.22391e-06
6.22295e-06
6.22256e-06
6.22273e-06
6.22347e-06
6.2248e-06
6.22678e-06
6.22937e-06
6.23262e-06
6.2366e-06
6.24138e-06
6.24702e-06
6.25359e-06
6.26114e-06
6.26979e-06
6.27956e-06
6.2905e-06
6.30256e-06
6.31569e-06
6.32981e-06
6.34479e-06
6.36044e-06
6.37654e-06
6.39284e-06
6.40901e-06
6.42473e-06
6.43962e-06
6.45331e-06
6.46543e-06
6.47566e-06
6.48366e-06
6.48928e-06
6.49234e-06
6.49241e-06
6.49068e-06
6.0469e-06
6.04708e-06
6.05071e-06
6.05882e-06
6.07013e-06
6.08419e-06
6.10229e-06
6.11906e-06
6.13311e-06
6.1445e-06
6.15373e-06
6.16143e-06
6.16821e-06
6.17451e-06
6.18069e-06
6.18698e-06
6.19349e-06
6.20017e-06
6.2069e-06
6.21351e-06
6.21984e-06
6.22577e-06
6.23124e-06
6.23625e-06
6.24081e-06
6.24492e-06
6.24855e-06
6.25169e-06
6.25441e-06
6.25672e-06
6.25858e-06
6.26e-06
6.26107e-06
6.26195e-06
6.26278e-06
6.26371e-06
6.26487e-06
6.26637e-06
6.26828e-06
6.27071e-06
6.27371e-06
6.27729e-06
6.28147e-06
6.2863e-06
6.29182e-06
6.29805e-06
6.30502e-06
6.31272e-06
6.32114e-06
6.33026e-06
6.34001e-06
6.35033e-06
6.36112e-06
6.37223e-06
6.38351e-06
6.39478e-06
6.40583e-06
6.41642e-06
6.42632e-06
6.43527e-06
6.44304e-06
6.44938e-06
6.45409e-06
6.45698e-06
6.45791e-06
6.45683e-06
6.45367e-06
6.4479e-06
6.44187e-06
6.05854e-06
6.0506e-06
6.04384e-06
6.0402e-06
6.04027e-06
6.04459e-06
6.05306e-06
6.06453e-06
6.08054e-06
6.09805e-06
6.11417e-06
6.12835e-06
6.14061e-06
6.15119e-06
6.16044e-06
6.16873e-06
6.1764e-06
6.18373e-06
6.19091e-06
6.19803e-06
6.2051e-06
6.2121e-06
6.21897e-06
6.22564e-06
6.23207e-06
6.23824e-06
6.24414e-06
6.24973e-06
6.25503e-06
6.26005e-06
6.2648e-06
6.26928e-06
6.2735e-06
6.27748e-06
6.28127e-06
6.28494e-06
6.28856e-06
6.29221e-06
6.29596e-06
6.29988e-06
6.30403e-06
6.30845e-06
6.3132e-06
6.31829e-06
6.32375e-06
6.3296e-06
6.33581e-06
6.34238e-06
6.34926e-06
6.35639e-06
6.36373e-06
6.37116e-06
6.37859e-06
6.3859e-06
6.39296e-06
6.3996e-06
6.40568e-06
6.41102e-06
6.41546e-06
6.41885e-06
6.42102e-06
6.42185e-06
6.4212e-06
6.41901e-06
6.41518e-06
6.4097e-06
6.40245e-06
6.39306e-06
6.3833e-06
6.0659e-06
6.06535e-06
6.06089e-06
6.05173e-06
6.04255e-06
6.03564e-06
6.03198e-06
6.03215e-06
6.03661e-06
6.04465e-06
6.0569e-06
6.07321e-06
6.08988e-06
6.10563e-06
6.12003e-06
6.13302e-06
6.14467e-06
6.15518e-06
6.16477e-06
6.17368e-06
6.18208e-06
6.19013e-06
6.19792e-06
6.20552e-06
6.21293e-06
6.22017e-06
6.22723e-06
6.23412e-06
6.24081e-06
6.24732e-06
6.25363e-06
6.25975e-06
6.26569e-06
6.27144e-06
6.27702e-06
6.28243e-06
6.2877e-06
6.29284e-06
6.29789e-06
6.30287e-06
6.3078e-06
6.31276e-06
6.31777e-06
6.32283e-06
6.32796e-06
6.33316e-06
6.33839e-06
6.34364e-06
6.34886e-06
6.354e-06
6.359e-06
6.36378e-06
6.36827e-06
6.37236e-06
6.37595e-06
6.37894e-06
6.38122e-06
6.38268e-06
6.38321e-06
6.38272e-06
6.38111e-06
6.37829e-06
6.37419e-06
6.36874e-06
6.36186e-06
6.35345e-06
6.34339e-06
6.33119e-06
6.31813e-06
6.04537e-06
6.05638e-06
6.06291e-06
6.06447e-06
6.0617e-06
6.05587e-06
6.04776e-06
6.03812e-06
6.03014e-06
6.02521e-06
6.02416e-06
6.02766e-06
6.03628e-06
6.04933e-06
6.06422e-06
6.07946e-06
6.0943e-06
6.10836e-06
6.12148e-06
6.13363e-06
6.14489e-06
6.15534e-06
6.16512e-06
6.17434e-06
6.1831e-06
6.19148e-06
6.19955e-06
6.20734e-06
6.21488e-06
6.2222e-06
6.22931e-06
6.23623e-06
6.24294e-06
6.24946e-06
6.25579e-06
6.26193e-06
6.26787e-06
6.27361e-06
6.27916e-06
6.28451e-06
6.28967e-06
6.29469e-06
6.29958e-06
6.30434e-06
6.30895e-06
6.31341e-06
6.31768e-06
6.32175e-06
6.32556e-06
6.32907e-06
6.33224e-06
6.33501e-06
6.3373e-06
6.33906e-06
6.34022e-06
6.34069e-06
6.34042e-06
6.33933e-06
6.33735e-06
6.3344e-06
6.3304e-06
6.32528e-06
6.31893e-06
6.31124e-06
6.30204e-06
6.2911e-06
6.27831e-06
6.26251e-06
6.24666e-06
5.99664e-06
6.01557e-06
6.03193e-06
6.04513e-06
6.05453e-06
6.05986e-06
6.06117e-06
6.05864e-06
6.0532e-06
6.04602e-06
6.03824e-06
6.03141e-06
6.02732e-06
6.02722e-06
6.03123e-06
6.03869e-06
6.04859e-06
6.05999e-06
6.07217e-06
6.08457e-06
6.09684e-06
6.10876e-06
6.12019e-06
6.13108e-06
6.14143e-06
6.15126e-06
6.16061e-06
6.16951e-06
6.17802e-06
6.18616e-06
6.19397e-06
6.20147e-06
6.20868e-06
6.21561e-06
6.22227e-06
6.22866e-06
6.23479e-06
6.24065e-06
6.24623e-06
6.25152e-06
6.25653e-06
6.2613e-06
6.26583e-06
6.27011e-06
6.27412e-06
6.27785e-06
6.28127e-06
6.28435e-06
6.28705e-06
6.28935e-06
6.29119e-06
6.29254e-06
6.29335e-06
6.29358e-06
6.29316e-06
6.29206e-06
6.2902e-06
6.28752e-06
6.28395e-06
6.27938e-06
6.27371e-06
6.26678e-06
6.25841e-06
6.24836e-06
6.23635e-06
6.22196e-06
6.20503e-06
6.1839e-06
6.16314e-06
5.9419e-06
5.95941e-06
5.97744e-06
5.99552e-06
6.01261e-06
6.02772e-06
6.04011e-06
6.04925e-06
6.05486e-06
6.05698e-06
6.05594e-06
6.05245e-06
6.04762e-06
6.04278e-06
6.03906e-06
6.03723e-06
6.03765e-06
6.04035e-06
6.04511e-06
6.0516e-06
6.0594e-06
6.06812e-06
6.07742e-06
6.08702e-06
6.09671e-06
6.10632e-06
6.11574e-06
6.1249e-06
6.13376e-06
6.14229e-06
6.15049e-06
6.15834e-06
6.16584e-06
6.17301e-06
6.17984e-06
6.18633e-06
6.19248e-06
6.19829e-06
6.20374e-06
6.20884e-06
6.2136e-06
6.21804e-06
6.22219e-06
6.22602e-06
6.22951e-06
6.23266e-06
6.23543e-06
6.2378e-06
6.23974e-06
6.24123e-06
6.24223e-06
6.2427e-06
6.2426e-06
6.24188e-06
6.24049e-06
6.23835e-06
6.23538e-06
6.23146e-06
6.22646e-06
6.22022e-06
6.21251e-06
6.20307e-06
6.1916e-06
6.17772e-06
6.16098e-06
6.14088e-06
6.11702e-06
6.08808e-06
6.05734e-06
5.8931e-06
5.9026e-06
5.91384e-06
5.92857e-06
5.94631e-06
5.96511e-06
5.98361e-06
6.00089e-06
6.01623e-06
6.02907e-06
6.03901e-06
6.04589e-06
6.04983e-06
6.05128e-06
6.05093e-06
6.04956e-06
6.0479e-06
6.04658e-06
6.04605e-06
6.0466e-06
6.04835e-06
6.05129e-06
6.05534e-06
6.06034e-06
6.06612e-06
6.0725e-06
6.0793e-06
6.08637e-06
6.09357e-06
6.10081e-06
6.10799e-06
6.11504e-06
6.1219e-06
6.12854e-06
6.13492e-06
6.14101e-06
6.14678e-06
6.15223e-06
6.15731e-06
6.16203e-06
6.16642e-06
6.1705e-06
6.17427e-06
6.17771e-06
6.1808e-06
6.18353e-06
6.18585e-06
6.18775e-06
6.1892e-06
6.19015e-06
6.19055e-06
6.19037e-06
6.18952e-06
6.18792e-06
6.18547e-06
6.18204e-06
6.17748e-06
6.17158e-06
6.16411e-06
6.1548e-06
6.1433e-06
6.12924e-06
6.11219e-06
6.09167e-06
6.06715e-06
6.03806e-06
6.00402e-06
5.96362e-06
5.91925e-06
5.85075e-06
5.85519e-06
5.8601e-06
5.86675e-06
5.87556e-06
5.88716e-06
5.90272e-06
5.92135e-06
5.94098e-06
5.96024e-06
5.97828e-06
5.9945e-06
6.00849e-06
6.02001e-06
6.02904e-06
6.03573e-06
6.04041e-06
6.04351e-06
6.04548e-06
6.04676e-06
6.04776e-06
6.04878e-06
6.05008e-06
6.05181e-06
6.05405e-06
6.05683e-06
6.06012e-06
6.06389e-06
6.06805e-06
6.07253e-06
6.07724e-06
6.0821e-06
6.08703e-06
6.09197e-06
6.09685e-06
6.10162e-06
6.10621e-06
6.1106e-06
6.11473e-06
6.11858e-06
6.12219e-06
6.12555e-06
6.12864e-06
6.13142e-06
6.13387e-06
6.13594e-06
6.13758e-06
6.13874e-06
6.13936e-06
6.13936e-06
6.13866e-06
6.13715e-06
6.13471e-06
6.13118e-06
6.12637e-06
6.12009e-06
6.11207e-06
6.10202e-06
6.08961e-06
6.07446e-06
6.05617e-06
6.03428e-06
6.00832e-06
5.9778e-06
5.94218e-06
5.90094e-06
5.85375e-06
5.79934e-06
5.73699e-06
5.8088e-06
5.81072e-06
5.8126e-06
5.81478e-06
5.81778e-06
5.82225e-06
5.82889e-06
5.8378e-06
5.84913e-06
5.86376e-06
5.88178e-06
5.90144e-06
5.92118e-06
5.94004e-06
5.95744e-06
5.97305e-06
5.98669e-06
5.99833e-06
6.00805e-06
6.01604e-06
6.02252e-06
6.02776e-06
6.03204e-06
6.03562e-06
6.03871e-06
6.04152e-06
6.04418e-06
6.04681e-06
6.04947e-06
6.05222e-06
6.05506e-06
6.058e-06
6.061e-06
6.06404e-06
6.06708e-06
6.07009e-06
6.073e-06
6.07579e-06
6.0784e-06
6.08081e-06
6.08302e-06
6.08498e-06
6.08667e-06
6.08802e-06
6.08896e-06
6.08943e-06
6.08933e-06
6.08856e-06
6.08702e-06
6.08458e-06
6.08108e-06
6.07635e-06
6.07019e-06
6.06238e-06
6.05265e-06
6.04072e-06
6.02626e-06
6.00892e-06
5.98834e-06
5.9641e-06
5.9358e-06
5.90299e-06
5.86523e-06
5.8221e-06
5.77312e-06
5.71785e-06
5.65597e-06
5.58605e-06
5.50994e-06
5.76539e-06
5.76521e-06
5.76532e-06
5.76559e-06
5.76601e-06
5.76674e-06
5.76806e-06
5.77029e-06
5.77385e-06
5.77935e-06
5.78708e-06
5.79685e-06
5.80884e-06
5.82382e-06
5.84156e-06
5.8606e-06
5.87967e-06
5.89796e-06
5.91502e-06
5.9306e-06
5.94463e-06
5.95707e-06
5.968e-06
5.97751e-06
5.98576e-06
5.99289e-06
5.99905e-06
6.00441e-06
6.00908e-06
6.01319e-06
6.01684e-06
6.02009e-06
6.023e-06
6.02562e-06
6.02795e-06
6.03e-06
6.03177e-06
6.03324e-06
6.03438e-06
6.03516e-06
6.03556e-06
6.03554e-06
6.03501e-06
6.03391e-06
6.03214e-06
6.0296e-06
6.02616e-06
6.02167e-06
6.01599e-06
6.00891e-06
6.00026e-06
5.98979e-06
5.97727e-06
5.96242e-06
5.94495e-06
5.92455e-06
5.90089e-06
5.87363e-06
5.84242e-06
5.8069e-06
5.76669e-06
5.72144e-06
5.67077e-06
5.61426e-06
5.55149e-06
5.4821e-06
5.40555e-06
5.32173e-06
5.22659e-06
5.71599e-06
5.71474e-06
5.71359e-06
5.71261e-06
5.71174e-06
5.71091e-06
5.71016e-06
5.70954e-06
5.70918e-06
5.70932e-06
5.71022e-06
5.71214e-06
5.71539e-06
5.72041e-06
5.72737e-06
5.73603e-06
5.74629e-06
5.75872e-06
5.77367e-06
5.79038e-06
5.80772e-06
5.82483e-06
5.84115e-06
5.85639e-06
5.87041e-06
5.88315e-06
5.89463e-06
5.90486e-06
5.91392e-06
5.92185e-06
5.92874e-06
5.93466e-06
5.93967e-06
5.94382e-06
5.94716e-06
5.94972e-06
5.95152e-06
5.95256e-06
5.95283e-06
5.95231e-06
5.95097e-06
5.94875e-06
5.94557e-06
5.94136e-06
5.936e-06
5.92936e-06
5.92131e-06
5.91168e-06
5.90028e-06
5.88694e-06
5.87142e-06
5.8535e-06
5.83294e-06
5.80947e-06
5.78284e-06
5.75275e-06
5.71893e-06
5.68108e-06
5.6389e-06
5.59208e-06
5.54029e-06
5.48318e-06
5.42036e-06
5.35141e-06
5.27594e-06
5.19346e-06
5.10394e-06
5.0052e-06
4.90369e-06
5.65689e-06
5.6552e-06
5.65338e-06
5.65154e-06
5.64974e-06
5.64795e-06
5.64617e-06
5.64436e-06
5.6425e-06
5.64061e-06
5.63877e-06
5.63706e-06
5.63562e-06
5.63462e-06
5.63429e-06
5.63477e-06
5.63621e-06
5.63887e-06
5.64298e-06
5.64848e-06
5.65513e-06
5.66281e-06
5.67198e-06
5.68313e-06
5.69589e-06
5.70945e-06
5.72304e-06
5.73611e-06
5.74831e-06
5.75944e-06
5.76941e-06
5.77818e-06
5.78571e-06
5.79201e-06
5.79706e-06
5.80085e-06
5.80336e-06
5.80458e-06
5.80448e-06
5.80304e-06
5.80023e-06
5.796e-06
5.79026e-06
5.78294e-06
5.77391e-06
5.76306e-06
5.75024e-06
5.73531e-06
5.71809e-06
5.69842e-06
5.67611e-06
5.65095e-06
5.62273e-06
5.59124e-06
5.55624e-06
5.51751e-06
5.4748e-06
5.42782e-06
5.37627e-06
5.31981e-06
5.25809e-06
5.19071e-06
5.11722e-06
5.03719e-06
4.9502e-06
4.85565e-06
4.75317e-06
4.64014e-06
4.51625e-06
5.58399e-06
5.58209e-06
5.57995e-06
5.57766e-06
5.57525e-06
5.57277e-06
5.57023e-06
5.56761e-06
5.56491e-06
5.56209e-06
5.55916e-06
5.55609e-06
5.55289e-06
5.54959e-06
5.54625e-06
5.54296e-06
5.53979e-06
5.53683e-06
5.53421e-06
5.53204e-06
5.53037e-06
5.52924e-06
5.52879e-06
5.52915e-06
5.53032e-06
5.53213e-06
5.53433e-06
5.5369e-06
5.54028e-06
5.54493e-06
5.55077e-06
5.55722e-06
5.56364e-06
5.56949e-06
5.57435e-06
5.57795e-06
5.58012e-06
5.58075e-06
5.57977e-06
5.5772e-06
5.57298e-06
5.56703e-06
5.55922e-06
5.54943e-06
5.53752e-06
5.52337e-06
5.50686e-06
5.48787e-06
5.46623e-06
5.44179e-06
5.41437e-06
5.38379e-06
5.34987e-06
5.31241e-06
5.27118e-06
5.22591e-06
5.1763e-06
5.12203e-06
5.0627e-06
4.99795e-06
4.92735e-06
4.85044e-06
4.76672e-06
4.67561e-06
4.57624e-06
4.46717e-06
4.34635e-06
4.21001e-06
4.05123e-06
5.49229e-06
5.49024e-06
5.4879e-06
5.48533e-06
5.48256e-06
5.47961e-06
5.47649e-06
5.47323e-06
5.46982e-06
5.46625e-06
5.46252e-06
5.45862e-06
5.45452e-06
5.4502e-06
5.44566e-06
5.44089e-06
5.4359e-06
5.4307e-06
5.42531e-06
5.41978e-06
5.41414e-06
5.40843e-06
5.40265e-06
5.39686e-06
5.39109e-06
5.38536e-06
5.37962e-06
5.37386e-06
5.36811e-06
5.3624e-06
5.3567e-06
5.35089e-06
5.34472e-06
5.338e-06
5.33083e-06
5.32371e-06
5.31706e-06
5.31087e-06
5.30498e-06
5.29894e-06
5.292e-06
5.28354e-06
5.27319e-06
5.2608e-06
5.24628e-06
5.22952e-06
5.21033e-06
5.18845e-06
5.16366e-06
5.13575e-06
5.10458e-06
5.06996e-06
5.03166e-06
4.98936e-06
4.94276e-06
4.8915e-06
4.8352e-06
4.77347e-06
4.70592e-06
4.63213e-06
4.55157e-06
4.46349e-06
4.36682e-06
4.26003e-06
4.1407e-06
4.00533e-06
3.85008e-06
3.66995e-06
3.46256e-06
5.37556e-06
5.37326e-06
5.37064e-06
5.36776e-06
5.36463e-06
5.36126e-06
5.35766e-06
5.35383e-06
5.34978e-06
5.3455e-06
5.341e-06
5.33627e-06
5.3313e-06
5.32608e-06
5.32059e-06
5.31481e-06
5.30873e-06
5.30232e-06
5.29557e-06
5.28848e-06
5.28102e-06
5.27321e-06
5.26501e-06
5.25644e-06
5.24749e-06
5.23815e-06
5.22842e-06
5.21825e-06
5.20763e-06
5.19652e-06
5.1849e-06
5.17271e-06
5.15989e-06
5.14636e-06
5.13203e-06
5.11686e-06
5.1008e-06
5.08375e-06
5.06555e-06
5.04596e-06
5.02482e-06
5.00274e-06
4.98118e-06
4.96057e-06
4.93991e-06
4.91792e-06
4.89358e-06
4.8664e-06
4.83625e-06
4.80305e-06
4.76655e-06
4.72628e-06
4.68173e-06
4.63248e-06
4.57818e-06
4.51842e-06
4.45281e-06
4.38094e-06
4.30228e-06
4.21593e-06
4.12054e-06
4.01415e-06
3.89415e-06
3.75734e-06
3.60001e-06
3.41905e-06
3.21257e-06
2.98317e-06
2.73921e-06
5.22547e-06
5.22265e-06
5.21951e-06
5.2161e-06
5.21242e-06
5.20848e-06
5.20426e-06
5.19977e-06
5.195e-06
5.18994e-06
5.18459e-06
5.17895e-06
5.17301e-06
5.16675e-06
5.16017e-06
5.15325e-06
5.14597e-06
5.13831e-06
5.13026e-06
5.12178e-06
5.11285e-06
5.10344e-06
5.09354e-06
5.0831e-06
5.07211e-06
5.06054e-06
5.04835e-06
5.03551e-06
5.02198e-06
5.00771e-06
4.99265e-06
4.97676e-06
4.95997e-06
4.94221e-06
4.92339e-06
4.90343e-06
4.88224e-06
4.85975e-06
4.8358e-06
4.81026e-06
4.78295e-06
4.75372e-06
4.72245e-06
4.68903e-06
4.65318e-06
4.6146e-06
4.57356e-06
4.53169e-06
4.48968e-06
4.44621e-06
4.39948e-06
4.34823e-06
4.29223e-06
4.23136e-06
4.16509e-06
4.09282e-06
4.01372e-06
3.92669e-06
3.83012e-06
3.72152e-06
3.59821e-06
3.45724e-06
3.29536e-06
3.11203e-06
2.90794e-06
2.6874e-06
2.45718e-06
2.23177e-06
2.02853e-06
5.02977e-06
5.02604e-06
5.022e-06
5.01769e-06
5.0131e-06
5.00824e-06
5.00309e-06
4.99764e-06
4.99187e-06
4.98578e-06
4.97935e-06
4.97256e-06
4.96541e-06
4.95789e-06
4.94997e-06
4.94163e-06
4.93287e-06
4.92366e-06
4.91397e-06
4.90378e-06
4.89306e-06
4.88178e-06
4.86991e-06
4.85739e-06
4.84421e-06
4.8303e-06
4.81563e-06
4.80015e-06
4.7838e-06
4.76652e-06
4.74825e-06
4.72891e-06
4.70843e-06
4.68672e-06
4.66367e-06
4.6392e-06
4.61319e-06
4.58553e-06
4.55609e-06
4.52471e-06
4.4912e-06
4.4554e-06
4.41709e-06
4.37604e-06
4.33202e-06
4.28474e-06
4.23389e-06
4.17919e-06
4.12033e-06
4.05689e-06
3.9882e-06
3.91512e-06
3.8402e-06
3.7621e-06
3.67845e-06
3.58721e-06
3.48583e-06
3.37147e-06
3.2415e-06
3.09397e-06
2.92865e-06
2.74585e-06
2.5461e-06
2.34214e-06
2.13971e-06
1.95595e-06
1.79071e-06
1.65449e-06
1.57181e-06
4.76924e-06
4.76414e-06
4.75875e-06
4.75308e-06
4.74714e-06
4.7409e-06
4.73437e-06
4.72751e-06
4.72031e-06
4.71275e-06
4.70481e-06
4.69648e-06
4.68772e-06
4.67853e-06
4.66888e-06
4.65874e-06
4.6481e-06
4.63692e-06
4.62517e-06
4.61283e-06
4.59986e-06
4.58621e-06
4.57186e-06
4.55675e-06
4.54083e-06
4.52405e-06
4.50636e-06
4.48768e-06
4.46795e-06
4.4471e-06
4.42503e-06
4.40165e-06
4.37687e-06
4.35058e-06
4.32265e-06
4.29295e-06
4.26138e-06
4.22776e-06
4.19193e-06
4.15369e-06
4.11282e-06
4.06911e-06
4.02231e-06
3.97214e-06
3.9183e-06
3.86048e-06
3.79831e-06
3.73138e-06
3.65923e-06
3.58132e-06
3.49696e-06
3.40542e-06
3.3053e-06
3.19632e-06
3.08109e-06
2.95667e-06
2.81786e-06
2.66306e-06
2.4962e-06
2.32177e-06
2.14469e-06
1.96992e-06
1.81211e-06
1.66887e-06
1.54581e-06
1.4572e-06
1.41775e-06
1.44921e-06
1.63088e-06
4.41279e-06
4.40585e-06
4.39862e-06
4.39111e-06
4.3833e-06
4.37518e-06
4.36672e-06
4.35792e-06
4.34874e-06
4.33917e-06
4.32917e-06
4.31873e-06
4.30782e-06
4.29641e-06
4.28448e-06
4.27198e-06
4.2589e-06
4.24519e-06
4.23082e-06
4.21574e-06
4.19993e-06
4.18331e-06
4.16586e-06
4.1475e-06
4.12819e-06
4.10785e-06
4.08641e-06
4.0638e-06
4.03992e-06
4.01469e-06
3.988e-06
3.95973e-06
3.92976e-06
3.89796e-06
3.86417e-06
3.82829e-06
3.79014e-06
3.74954e-06
3.70627e-06
3.66009e-06
3.61074e-06
3.55793e-06
3.50134e-06
3.44062e-06
3.37536e-06
3.3051e-06
3.22932e-06
3.1474e-06
3.05863e-06
2.96221e-06
2.85729e-06
2.74305e-06
2.61899e-06
2.48503e-06
2.34175e-06
2.192e-06
2.03817e-06
1.8851e-06
1.7379e-06
1.60662e-06
1.48952e-06
1.39175e-06
1.32207e-06
1.29147e-06
1.3084e-06
1.42151e-06
1.67769e-06
2.18765e-06
3.16301e-06
3.91107e-06
3.90189e-06
3.89243e-06
3.88266e-06
3.87257e-06
3.86213e-06
3.85133e-06
3.84014e-06
3.82854e-06
3.8165e-06
3.804e-06
3.79101e-06
3.77749e-06
3.76342e-06
3.74876e-06
3.73348e-06
3.71753e-06
3.70088e-06
3.68348e-06
3.66528e-06
3.64623e-06
3.62628e-06
3.60537e-06
3.58343e-06
3.56039e-06
3.53618e-06
3.5107e-06
3.48388e-06
3.4556e-06
3.42576e-06
3.39425e-06
3.36092e-06
3.32565e-06
3.28826e-06
3.24862e-06
3.20654e-06
3.16179e-06
3.1141e-06
3.06323e-06
3.00886e-06
2.95066e-06
2.88827e-06
2.82124e-06
2.74911e-06
2.67137e-06
2.58743e-06
2.4967e-06
2.39866e-06
2.29302e-06
2.17983e-06
2.05957e-06
1.93336e-06
1.8049e-06
1.67699e-06
1.55282e-06
1.44304e-06
1.34399e-06
1.26068e-06
1.19773e-06
1.16099e-06
1.15157e-06
1.19405e-06
1.30572e-06
1.52191e-06
1.90291e-06
2.5648e-06
3.72951e-06
5.81685e-06
9.48565e-06
3.19353e-06
3.1821e-06
3.1704e-06
3.15839e-06
3.14603e-06
3.13331e-06
3.1202e-06
3.10669e-06
3.09273e-06
3.07832e-06
3.06342e-06
3.048e-06
3.03204e-06
3.01549e-06
2.99833e-06
2.98052e-06
2.96201e-06
2.94276e-06
2.92274e-06
2.90188e-06
2.88013e-06
2.85744e-06
2.83375e-06
2.80898e-06
2.78306e-06
2.75592e-06
2.72747e-06
2.69761e-06
2.66625e-06
2.63327e-06
2.59856e-06
2.56198e-06
2.5234e-06
2.48265e-06
2.43951e-06
2.39373e-06
2.34503e-06
2.29312e-06
2.23769e-06
2.1784e-06
2.11492e-06
2.04692e-06
1.97414e-06
1.89643e-06
1.81386e-06
1.72641e-06
1.6347e-06
1.54012e-06
1.44448e-06
1.34998e-06
1.25901e-06
1.17474e-06
1.1086e-06
1.05632e-06
1.01967e-06
9.95945e-07
9.96875e-07
1.03637e-06
1.11962e-06
1.26322e-06
1.48732e-06
1.8301e-06
2.3602e-06
3.1962e-06
4.54123e-06
6.73246e-06
1.02812e-05
1.57967e-05
2.33021e-05
2.20444e-06
2.19235e-06
2.18007e-06
2.16753e-06
2.15471e-06
2.14158e-06
2.12813e-06
2.11434e-06
2.10018e-06
2.08564e-06
2.07069e-06
2.05531e-06
2.03947e-06
2.02315e-06
2.00633e-06
1.98897e-06
1.97103e-06
1.9525e-06
1.93332e-06
1.91347e-06
1.8929e-06
1.87157e-06
1.84944e-06
1.82644e-06
1.80253e-06
1.77765e-06
1.75174e-06
1.72474e-06
1.69657e-06
1.66715e-06
1.63641e-06
1.60426e-06
1.57039e-06
1.53441e-06
1.49614e-06
1.45549e-06
1.41241e-06
1.3669e-06
1.31904e-06
1.26898e-06
1.21699e-06
1.16352e-06
1.10932e-06
1.05525e-06
1.00232e-06
9.52523e-07
9.07939e-07
8.70329e-07
8.41414e-07
8.22957e-07
8.16654e-07
8.25373e-07
8.6251e-07
9.24788e-07
1.01846e-06
1.15014e-06
1.32938e-06
1.57093e-06
1.89608e-06
2.33835e-06
2.95162e-06
3.82671e-06
5.11511e-06
7.04034e-06
9.95392e-06
1.42081e-05
1.96638e-05
2.55579e-05
2.91526e-05
1.05975e-06
1.0519e-06
1.04404e-06
1.0361e-06
1.02807e-06
1.01994e-06
1.0117e-06
1.00334e-06
9.94836e-07
9.86191e-07
9.77391e-07
9.68423e-07
9.59276e-07
9.49939e-07
9.40397e-07
9.3064e-07
9.20653e-07
9.10423e-07
8.99934e-07
8.89172e-07
8.7812e-07
8.66762e-07
8.55081e-07
8.43058e-07
8.30674e-07
8.17913e-07
8.04761e-07
7.91206e-07
7.77237e-07
7.62839e-07
7.48014e-07
7.3285e-07
7.17555e-07
7.02412e-07
6.87634e-07
6.73424e-07
6.60032e-07
6.47757e-07
6.36959e-07
6.28065e-07
6.21585e-07
6.18119e-07
6.18348e-07
6.23472e-07
6.37779e-07
6.67407e-07
7.10634e-07
7.66826e-07
8.37369e-07
9.24233e-07
1.02952e-06
1.15533e-06
1.30395e-06
1.47753e-06
1.67812e-06
1.90893e-06
2.17737e-06
2.50107e-06
2.91831e-06
3.49744e-06
4.32278e-06
5.42145e-06
6.80946e-06
8.68513e-06
1.13372e-05
1.39498e-05
1.42884e-05
1.24579e-05
9.64004e-06
3.02222e-07
3.09075e-07
3.15777e-07
3.2244e-07
3.29112e-07
3.35803e-07
3.42514e-07
3.49243e-07
3.55984e-07
3.62735e-07
3.69492e-07
3.76255e-07
3.83022e-07
3.89795e-07
3.96574e-07
4.03363e-07
4.10166e-07
4.16988e-07
4.23835e-07
4.30716e-07
4.37639e-07
4.44615e-07
4.51658e-07
4.58783e-07
4.66009e-07
4.73371e-07
4.81101e-07
4.89765e-07
4.99628e-07
5.10872e-07
5.23688e-07
5.38222e-07
5.54652e-07
5.73188e-07
5.94067e-07
6.17552e-07
6.43925e-07
6.73478e-07
7.06506e-07
7.43282e-07
7.84026e-07
8.28864e-07
8.77759e-07
9.30451e-07
9.86379e-07
1.04443e-06
1.10297e-06
1.15969e-06
1.21168e-06
1.25565e-06
1.28841e-06
1.30788e-06
1.3145e-06
1.31095e-06
1.29534e-06
1.28058e-06
1.28054e-06
1.3171e-06
1.44877e-06
1.75547e-06
2.08742e-06
1.9538e-06
1.62875e-06
1.37587e-06
1.1906e-06
1.4301e-06
1.51372e-06
1.3657e-06
1.22839e-06
2.42895e-07
2.51345e-07
2.60072e-07
2.69102e-07
2.78429e-07
2.88036e-07
2.97902e-07
3.08006e-07
3.18327e-07
3.28845e-07
3.39538e-07
3.50382e-07
3.61354e-07
3.72427e-07
3.83574e-07
3.94768e-07
4.05977e-07
4.17168e-07
4.28305e-07
4.39351e-07
4.50263e-07
4.60996e-07
4.71497e-07
4.81709e-07
4.91566e-07
5.00969e-07
5.09565e-07
5.1672e-07
5.22217e-07
5.26008e-07
5.28054e-07
5.28311e-07
5.26715e-07
5.23159e-07
5.17507e-07
5.09593e-07
4.99233e-07
4.86229e-07
4.70381e-07
4.51502e-07
4.29436e-07
4.04087e-07
3.75454e-07
3.43665e-07
3.09023e-07
2.72049e-07
2.33516e-07
1.94462e-07
1.56165e-07
1.20088e-07
8.77747e-08
6.06932e-08
3.97533e-08
2.44011e-08
1.51551e-08
1.04596e-08
7.09078e-09
4.39634e-09
4.34295e-09
7.04228e-09
9.67816e-09
8.23112e-09
5.49398e-09
4.60367e-09
4.77547e-09
5.63113e-09
5.96529e-09
5.61369e-09
6.19474e-09
6.17747e-06
6.1639e-06
6.15363e-06
6.14574e-06
6.14119e-06
6.14152e-06
6.14649e-06
6.15142e-06
6.15042e-06
6.14709e-06
6.14609e-06
6.14332e-06
6.13599e-06
6.1243e-06
6.11854e-06
6.12686e-06
6.12424e-06
6.11573e-06
6.1108e-06
6.10715e-06
6.09586e-06
6.05758e-06
6.04965e-06
6.04824e-06
6.05207e-06
6.06689e-06
6.06488e-06
6.0612e-06
6.05894e-06
6.06269e-06
6.06426e-06
6.0561e-06
6.04259e-06
6.03417e-06
6.03736e-06
6.05865e-06
6.069e-06
6.05871e-06
6.05113e-06
6.05301e-06
6.05172e-06
6.05146e-06
6.04936e-06
6.06112e-06
6.07505e-06
6.08502e-06
6.09026e-06
6.09368e-06
6.09117e-06
6.08298e-06
6.07986e-06
6.08218e-06
6.09102e-06
6.0983e-06
6.11037e-06
6.12667e-06
6.13953e-06
6.1475e-06
6.15249e-06
6.15172e-06
6.14712e-06
6.14617e-06
6.14807e-06
6.15218e-06
6.15705e-06
6.15655e-06
6.15075e-06
6.14221e-06
6.13797e-06
6.13393e-06
6.12749e-06
6.12012e-06
6.11643e-06
6.12018e-06
6.12177e-06
6.11135e-06
6.10434e-06
6.10002e-06
6.09314e-06
6.07396e-06
6.04427e-06
6.03997e-06
6.03989e-06
6.04564e-06
6.05829e-06
6.05563e-06
6.05201e-06
6.04952e-06
6.05235e-06
6.05403e-06
6.04772e-06
6.03566e-06
6.02585e-06
6.02518e-06
6.04193e-06
6.05626e-06
6.05295e-06
6.04432e-06
6.04199e-06
6.04081e-06
6.04003e-06
6.03777e-06
6.04196e-06
6.05297e-06
6.0644e-06
6.07252e-06
6.07821e-06
6.08521e-06
6.08426e-06
6.07879e-06
6.07463e-06
6.07486e-06
6.07736e-06
6.08175e-06
6.08993e-06
6.10066e-06
6.11453e-06
6.12792e-06
6.1546e-06
6.1575e-06
6.16145e-06
6.1625e-06
6.16068e-06
6.15447e-06
6.14385e-06
6.13455e-06
6.12765e-06
6.1229e-06
6.11799e-06
6.11374e-06
6.11298e-06
6.11672e-06
6.11675e-06
6.10721e-06
6.09729e-06
6.09195e-06
6.08656e-06
6.07502e-06
6.05302e-06
6.03163e-06
6.02949e-06
6.03097e-06
6.03828e-06
6.04857e-06
6.04554e-06
6.04173e-06
6.03921e-06
6.04134e-06
6.04291e-06
6.03815e-06
6.0278e-06
6.01751e-06
6.01371e-06
6.02523e-06
6.04068e-06
6.04383e-06
6.03743e-06
6.03241e-06
6.02988e-06
6.02817e-06
6.02594e-06
6.02613e-06
6.03223e-06
6.04207e-06
6.05136e-06
6.05842e-06
6.06842e-06
6.07778e-06
6.08048e-06
6.0752e-06
6.06943e-06
6.06593e-06
6.06492e-06
6.06634e-06
6.07035e-06
6.07733e-06
6.08644e-06
6.17e-06
6.16773e-06
6.16297e-06
6.15454e-06
6.1431e-06
6.1311e-06
6.12211e-06
6.11547e-06
6.11115e-06
6.10828e-06
6.1069e-06
6.10789e-06
6.11026e-06
6.10932e-06
6.10084e-06
6.09009e-06
6.08275e-06
6.07767e-06
6.06953e-06
6.05428e-06
6.03344e-06
6.0189e-06
6.0184e-06
6.02142e-06
6.02952e-06
6.03773e-06
6.03446e-06
6.03044e-06
6.02793e-06
6.02949e-06
6.03087e-06
6.02736e-06
6.01869e-06
6.00862e-06
6.00256e-06
6.00906e-06
6.02325e-06
6.03103e-06
6.02866e-06
6.02329e-06
6.01931e-06
6.01647e-06
6.0138e-06
6.01204e-06
6.01398e-06
6.0203e-06
6.02858e-06
6.036e-06
6.04428e-06
6.05607e-06
6.06845e-06
6.07425e-06
6.07391e-06
6.06796e-06
6.06203e-06
6.05777e-06
6.05558e-06
6.05564e-06
6.05793e-06
6.1588e-06
6.14814e-06
6.13605e-06
6.12392e-06
6.11457e-06
6.10717e-06
6.10264e-06
6.10023e-06
6.09957e-06
6.10011e-06
6.10126e-06
6.10157e-06
6.09887e-06
6.09144e-06
6.08094e-06
6.07259e-06
6.06682e-06
6.06028e-06
6.04906e-06
6.03235e-06
6.0149e-06
6.00568e-06
6.0066e-06
6.011e-06
6.01925e-06
6.0256e-06
6.0222e-06
6.01798e-06
6.01549e-06
6.01658e-06
6.01776e-06
6.01521e-06
6.00813e-06
5.99874e-06
5.99128e-06
5.99344e-06
6.00482e-06
6.01497e-06
6.01687e-06
6.01317e-06
6.00868e-06
6.00489e-06
6.00152e-06
5.99863e-06
5.99776e-06
6.00038e-06
6.00604e-06
6.01256e-06
6.0192e-06
6.02783e-06
6.03948e-06
6.05399e-06
6.06468e-06
6.06925e-06
6.06911e-06
6.06375e-06
6.0577e-06
6.05267e-06
6.04928e-06
6.12304e-06
6.1117e-06
6.10371e-06
6.09737e-06
6.09341e-06
6.09139e-06
6.09102e-06
6.0916e-06
6.09229e-06
6.09221e-06
6.09046e-06
6.08588e-06
6.07814e-06
6.06889e-06
6.06041e-06
6.05413e-06
6.04809e-06
6.03923e-06
6.02598e-06
6.01009e-06
5.99683e-06
5.99164e-06
5.99394e-06
5.9995e-06
6.00742e-06
6.01203e-06
6.00852e-06
6.00416e-06
6.00168e-06
6.0024e-06
6.00337e-06
6.00157e-06
5.9959e-06
5.9875e-06
5.97939e-06
5.9781e-06
5.98592e-06
5.99635e-06
6.00166e-06
6.00076e-06
5.99703e-06
5.99292e-06
5.98899e-06
5.98531e-06
5.98268e-06
5.98236e-06
5.9849e-06
5.98938e-06
5.99455e-06
6.0004e-06
6.00838e-06
6.0192e-06
6.03334e-06
6.04771e-06
6.0583e-06
6.06387e-06
6.06549e-06
6.06383e-06
6.06178e-06
6.09081e-06
6.08635e-06
6.08385e-06
6.0824e-06
6.082e-06
6.08213e-06
6.08218e-06
6.0815e-06
6.07942e-06
6.07541e-06
6.06938e-06
6.06164e-06
6.05317e-06
6.04538e-06
6.03902e-06
6.03314e-06
6.02558e-06
6.01479e-06
6.00124e-06
5.98777e-06
5.97863e-06
5.97658e-06
5.98022e-06
5.98658e-06
5.99376e-06
5.9968e-06
5.99319e-06
5.98874e-06
5.98628e-06
5.98669e-06
5.98748e-06
5.98623e-06
5.98179e-06
5.97453e-06
5.9664e-06
5.96259e-06
5.96678e-06
5.97585e-06
5.98312e-06
5.98519e-06
5.98326e-06
5.97968e-06
5.97566e-06
5.97157e-06
5.96791e-06
5.96557e-06
5.96537e-06
5.9673e-06
5.9706e-06
5.97459e-06
5.97943e-06
5.98596e-06
5.99517e-06
6.00677e-06
6.02171e-06
6.03634e-06
6.04815e-06
6.05623e-06
6.06212e-06
6.07492e-06
6.07266e-06
6.07199e-06
6.07103e-06
6.06993e-06
6.06813e-06
6.06526e-06
6.06107e-06
6.05552e-06
6.04877e-06
6.04126e-06
6.0337e-06
6.0268e-06
6.0208e-06
6.0151e-06
6.00829e-06
5.99917e-06
5.9877e-06
5.97545e-06
5.96521e-06
5.95978e-06
5.96026e-06
5.96511e-06
5.97182e-06
5.97793e-06
5.97962e-06
5.97592e-06
5.97142e-06
5.969e-06
5.96918e-06
5.96981e-06
5.96896e-06
5.96556e-06
5.95947e-06
5.95179e-06
5.94638e-06