/*--------------------------------*- C++ -*----------------------------------*\
| =========                 |                                                 |
| \\      /  F ield         | OpenFOAM: The Open Source CFD Toolbox           |
|  \\    /   O peration     | Version:  2312                                  |
|   \\  /    A nd           | Website:  www.openfoam.com                      |
|    \\/     M anipulation  |                                                 |
\*---------------------------------------------------------------------------*/
FoamFile
{
    version     2.0;
    format      ascii;
    arch        "LSB;label=32;scalar=64";
    class       volScalarField;
    location    "1600";
    object      nuTilda;
}
// * * * * * * * * * * * * * * * * * * * * * * * * * * * * * * * * * * * * * //

dimensions      [0 2 -1 0 0 0 0];

internalField   nonuniform List<scalar> 
76025
(
4.01625e-05
4.01634e-05
4.01606e-05
4.01543e-05
4.01604e-05
4.01688e-05
4.01866e-05
4.02042e-05
4.02169e-05
4.0227e-05
4.02357e-05
4.02426e-05
4.02476e-05
4.02484e-05
4.02457e-05
4.02445e-05
4.02443e-05
4.02468e-05
4.02464e-05
4.02483e-05
4.02463e-05
4.02451e-05
4.02449e-05
4.02546e-05
4.02704e-05
4.02865e-05
4.03102e-05
4.03329e-05
4.03567e-05
4.03836e-05
4.04124e-05
4.04347e-05
4.04616e-05
4.04829e-05
4.0505e-05
4.05218e-05
4.05388e-05
4.05626e-05
4.05834e-05
4.06028e-05
4.06199e-05
4.06372e-05
4.06602e-05
4.06777e-05
4.0693e-05
4.07044e-05
4.0717e-05
4.0722e-05
4.07192e-05
4.0708e-05
4.06893e-05
4.06651e-05
4.06347e-05
4.06002e-05
4.05654e-05
4.05292e-05
4.04973e-05
4.04705e-05
4.04452e-05
4.04337e-05
4.04357e-05
4.04507e-05
4.04894e-05
4.05397e-05
4.05952e-05
4.0656e-05
4.07187e-05
4.07716e-05
4.08142e-05
4.01345e-05
4.01532e-05
4.01642e-05
4.01661e-05
4.01664e-05
4.01654e-05
4.01702e-05
4.01804e-05
4.01936e-05
4.02072e-05
4.02201e-05
4.0232e-05
4.02431e-05
4.02531e-05
4.02587e-05
4.02621e-05
4.02627e-05
4.02634e-05
4.02631e-05
4.02632e-05
4.02619e-05
4.02597e-05
4.02566e-05
4.02484e-05
4.02421e-05
4.02387e-05
4.02392e-05
4.02432e-05
4.02493e-05
4.02576e-05
4.02747e-05
4.0294e-05
4.03142e-05
4.03339e-05
4.03526e-05
4.03698e-05
4.0385e-05
4.0399e-05
4.04115e-05
4.04224e-05
4.04311e-05
4.04371e-05
4.04405e-05
4.0441e-05
4.04384e-05
4.04325e-05
4.0423e-05
4.04052e-05
4.03864e-05
4.03669e-05
4.03491e-05
4.03352e-05
4.03303e-05
4.03325e-05
4.03427e-05
4.03591e-05
4.03814e-05
4.04094e-05
4.04427e-05
4.04812e-05
4.05242e-05
4.05706e-05
4.06188e-05
4.06674e-05
4.07147e-05
4.07587e-05
4.07981e-05
4.08311e-05
4.08634e-05
4.00622e-05
4.00943e-05
4.0123e-05
4.01447e-05
4.01589e-05
4.01669e-05
4.01713e-05
4.01756e-05
4.01819e-05
4.01908e-05
4.02014e-05
4.02131e-05
4.02252e-05
4.02378e-05
4.02497e-05
4.02602e-05
4.02685e-05
4.02746e-05
4.0279e-05
4.0282e-05
4.02839e-05
4.02849e-05
4.0285e-05
4.02832e-05
4.02796e-05
4.02747e-05
4.02694e-05
4.02647e-05
4.02591e-05
4.02487e-05
4.02408e-05
4.02365e-05
4.0235e-05
4.02357e-05
4.02379e-05
4.02409e-05
4.02441e-05
4.02472e-05
4.02499e-05
4.02518e-05
4.02527e-05
4.02534e-05
4.02541e-05
4.0255e-05
4.02561e-05
4.02578e-05
4.02603e-05
4.02639e-05
4.02723e-05
4.02856e-05
4.03026e-05
4.03225e-05
4.03455e-05
4.03713e-05
4.03999e-05
4.04314e-05
4.04654e-05
4.05016e-05
4.05395e-05
4.05785e-05
4.06177e-05
4.06562e-05
4.0693e-05
4.07272e-05
4.07578e-05
4.0784e-05
4.08052e-05
4.08204e-05
4.08311e-05
3.99928e-05
4.0012e-05
4.00354e-05
4.00668e-05
4.00988e-05
4.01255e-05
4.01456e-05
4.016e-05
4.01707e-05
4.01796e-05
4.01884e-05
4.01976e-05
4.02077e-05
4.02186e-05
4.02304e-05
4.02427e-05
4.02548e-05
4.02662e-05
4.02764e-05
4.02853e-05
4.02928e-05
4.0299e-05
4.03041e-05
4.03082e-05
4.03111e-05
4.03128e-05
4.03132e-05
4.03127e-05
4.03112e-05
4.03081e-05
4.03039e-05
4.02992e-05
4.02948e-05
4.02911e-05
4.02883e-05
4.02866e-05
4.02858e-05
4.02862e-05
4.02875e-05
4.029e-05
4.02936e-05
4.02983e-05
4.03043e-05
4.03115e-05
4.03203e-05
4.03306e-05
4.03426e-05
4.03563e-05
4.03721e-05
4.03899e-05
4.04098e-05
4.04317e-05
4.04555e-05
4.04811e-05
4.05082e-05
4.05365e-05
4.05656e-05
4.05949e-05
4.0624e-05
4.06523e-05
4.0679e-05
4.07035e-05
4.07252e-05
4.07434e-05
4.07577e-05
4.07677e-05
4.07732e-05
4.07733e-05
4.07702e-05
3.99614e-05
3.99617e-05
3.99685e-05
3.99836e-05
4.00046e-05
4.00308e-05
4.00643e-05
4.00954e-05
4.01214e-05
4.01424e-05
4.01594e-05
4.01736e-05
4.01861e-05
4.01977e-05
4.0209e-05
4.02206e-05
4.02325e-05
4.02448e-05
4.02572e-05
4.02693e-05
4.02809e-05
4.02917e-05
4.03017e-05
4.03109e-05
4.03192e-05
4.03267e-05
4.03334e-05
4.03391e-05
4.03441e-05
4.03483e-05
4.03517e-05
4.03543e-05
4.03562e-05
4.03578e-05
4.03593e-05
4.0361e-05
4.03631e-05
4.03659e-05
4.03694e-05
4.03738e-05
4.03793e-05
4.03858e-05
4.03934e-05
4.04022e-05
4.04122e-05
4.04235e-05
4.04362e-05
4.04502e-05
4.04654e-05
4.0482e-05
4.04996e-05
4.05183e-05
4.05378e-05
4.05578e-05
4.05781e-05
4.05984e-05
4.06183e-05
4.06373e-05
4.06551e-05
4.06712e-05
4.06851e-05
4.06965e-05
4.07049e-05
4.071e-05
4.07117e-05
4.07098e-05
4.07041e-05
4.06938e-05
4.0683e-05
3.99831e-05
3.99683e-05
3.99557e-05
3.99489e-05
3.9949e-05
3.99571e-05
3.99729e-05
3.99942e-05
4.0024e-05
4.00565e-05
4.00863e-05
4.01126e-05
4.01352e-05
4.01547e-05
4.01718e-05
4.0187e-05
4.02012e-05
4.02146e-05
4.02278e-05
4.02409e-05
4.02539e-05
4.02667e-05
4.02793e-05
4.02915e-05
4.03033e-05
4.03145e-05
4.03253e-05
4.03355e-05
4.03452e-05
4.03543e-05
4.0363e-05
4.03712e-05
4.03789e-05
4.03861e-05
4.0393e-05
4.03997e-05
4.04063e-05
4.04129e-05
4.04197e-05
4.04268e-05
4.04344e-05
4.04424e-05
4.0451e-05
4.04603e-05
4.04702e-05
4.04807e-05
4.0492e-05
4.05039e-05
4.05163e-05
4.05292e-05
4.05425e-05
4.05559e-05
4.05693e-05
4.05825e-05
4.05952e-05
4.06071e-05
4.0618e-05
4.06276e-05
4.06356e-05
4.06417e-05
4.06456e-05
4.06471e-05
4.06459e-05
4.0642e-05
4.06351e-05
4.06253e-05
4.06122e-05
4.05953e-05
4.05778e-05
3.99968e-05
3.99958e-05
3.99875e-05
3.99704e-05
3.99533e-05
3.99404e-05
3.99336e-05
3.99339e-05
3.99422e-05
3.99572e-05
3.998e-05
4.00104e-05
4.00413e-05
4.00705e-05
4.00972e-05
4.01212e-05
4.01427e-05
4.01621e-05
4.01798e-05
4.01961e-05
4.02116e-05
4.02264e-05
4.02407e-05
4.02546e-05
4.02682e-05
4.02815e-05
4.02944e-05
4.0307e-05
4.03192e-05
4.03311e-05
4.03426e-05
4.03538e-05
4.03646e-05
4.03751e-05
4.03853e-05
4.03951e-05
4.04047e-05
4.04141e-05
4.04232e-05
4.04323e-05
4.04412e-05
4.04502e-05
4.04593e-05
4.04685e-05
4.04778e-05
4.04872e-05
4.04967e-05
4.05062e-05
4.05156e-05
4.05249e-05
4.05339e-05
4.05426e-05
4.05507e-05
4.0558e-05
4.05645e-05
4.05699e-05
4.0574e-05
4.05767e-05
4.05776e-05
4.05767e-05
4.05738e-05
4.05687e-05
4.05613e-05
4.05515e-05
4.05391e-05
4.05239e-05
4.05057e-05
4.04836e-05
4.046e-05
3.99586e-05
3.99791e-05
3.99912e-05
3.99941e-05
3.9989e-05
3.99781e-05
3.9963e-05
3.9945e-05
3.99301e-05
3.99209e-05
3.9919e-05
3.99255e-05
3.99416e-05
3.99659e-05
3.99937e-05
4.0022e-05
4.00495e-05
4.00756e-05
4.00999e-05
4.01223e-05
4.01431e-05
4.01624e-05
4.01804e-05
4.01974e-05
4.02135e-05
4.02289e-05
4.02437e-05
4.0258e-05
4.02718e-05
4.02852e-05
4.02982e-05
4.03108e-05
4.03231e-05
4.0335e-05
4.03466e-05
4.03578e-05
4.03686e-05
4.03791e-05
4.03892e-05
4.03989e-05
4.04083e-05
4.04174e-05
4.04263e-05
4.04349e-05
4.04433e-05
4.04514e-05
4.04592e-05
4.04665e-05
4.04734e-05
4.04798e-05
4.04855e-05
4.04905e-05
4.04947e-05
4.04979e-05
4.05e-05
4.05008e-05
4.05004e-05
4.04984e-05
4.04948e-05
4.04894e-05
4.04822e-05
4.04729e-05
4.04614e-05
4.04475e-05
4.04308e-05
4.04109e-05
4.03876e-05
4.03588e-05
4.03299e-05
3.98675e-05
3.99029e-05
3.99335e-05
3.99581e-05
3.99756e-05
3.99855e-05
3.9988e-05
3.99833e-05
3.99731e-05
3.99598e-05
3.99453e-05
3.99325e-05
3.99249e-05
3.99247e-05
3.99322e-05
3.99461e-05
3.99645e-05
3.99858e-05
4.00084e-05
4.00315e-05
4.00542e-05
4.00763e-05
4.00975e-05
4.01176e-05
4.01367e-05
4.01549e-05
4.01721e-05
4.01885e-05
4.02041e-05
4.02191e-05
4.02334e-05
4.02472e-05
4.02604e-05
4.02731e-05
4.02853e-05
4.0297e-05
4.03082e-05
4.03189e-05
4.03291e-05
4.03388e-05
4.03479e-05
4.03566e-05
4.03649e-05
4.03727e-05
4.038e-05
4.03868e-05
4.0393e-05
4.03986e-05
4.04035e-05
4.04077e-05
4.04111e-05
4.04135e-05
4.0415e-05
4.04154e-05
4.04146e-05
4.04126e-05
4.04093e-05
4.04044e-05
4.03979e-05
4.03896e-05
4.03792e-05
4.03666e-05
4.03513e-05
4.0333e-05
4.03111e-05
4.02848e-05
4.02537e-05
4.02149e-05
4.01768e-05
3.97646e-05
3.97976e-05
3.98315e-05
3.98654e-05
3.98974e-05
3.99256e-05
3.99488e-05
3.99658e-05
3.99762e-05
3.99802e-05
3.99782e-05
3.99717e-05
3.99628e-05
3.99537e-05
3.99468e-05
3.99434e-05
3.99442e-05
3.99492e-05
3.99581e-05
3.99702e-05
3.99847e-05
4.00009e-05
4.00182e-05
4.0036e-05
4.0054e-05
4.00718e-05
4.00892e-05
4.01062e-05
4.01226e-05
4.01383e-05
4.01534e-05
4.01679e-05
4.01817e-05
4.01949e-05
4.02075e-05
4.02194e-05
4.02307e-05
4.02414e-05
4.02514e-05
4.02607e-05
4.02694e-05
4.02776e-05
4.02852e-05
4.02922e-05
4.02986e-05
4.03043e-05
4.03094e-05
4.03137e-05
4.03173e-05
4.032e-05
4.03218e-05
4.03227e-05
4.03225e-05
4.03212e-05
4.03186e-05
4.03147e-05
4.03093e-05
4.03021e-05
4.0293e-05
4.02816e-05
4.02674e-05
4.02501e-05
4.02291e-05
4.02036e-05
4.01728e-05
4.01357e-05
4.00916e-05
4.0038e-05
3.99809e-05
3.96725e-05
3.96904e-05
3.97117e-05
3.97395e-05
3.97729e-05
3.98083e-05
3.98431e-05
3.98755e-05
3.99042e-05
3.99281e-05
3.99467e-05
3.99595e-05
3.99669e-05
3.99696e-05
3.99689e-05
3.99664e-05
3.99633e-05
3.99608e-05
3.99598e-05
3.99608e-05
3.99641e-05
3.99696e-05
3.99771e-05
3.99864e-05
3.99972e-05
4.00091e-05
4.00217e-05
4.00348e-05
4.00482e-05
4.00616e-05
4.00749e-05
4.00879e-05
4.01006e-05
4.01129e-05
4.01247e-05
4.01359e-05
4.01466e-05
4.01566e-05
4.0166e-05
4.01747e-05
4.01828e-05
4.01903e-05
4.01972e-05
4.02036e-05
4.02093e-05
4.02143e-05
4.02185e-05
4.0222e-05
4.02247e-05
4.02264e-05
4.02272e-05
4.02268e-05
4.02253e-05
4.02223e-05
4.02178e-05
4.02115e-05
4.02031e-05
4.01923e-05
4.01785e-05
4.01614e-05
4.01402e-05
4.01142e-05
4.00827e-05
4.00446e-05
3.99991e-05
3.99449e-05
3.98813e-05
3.98055e-05
3.97219e-05
3.95921e-05
3.96005e-05
3.96099e-05
3.96225e-05
3.96392e-05
3.96612e-05
3.96907e-05
3.97259e-05
3.97629e-05
3.97992e-05
3.98331e-05
3.98635e-05
3.98897e-05
3.99112e-05
3.99281e-05
3.99406e-05
3.99493e-05
3.99551e-05
3.99588e-05
3.99611e-05
3.9963e-05
3.99649e-05
3.99673e-05
3.99706e-05
3.99747e-05
3.99799e-05
3.9986e-05
3.9993e-05
4.00008e-05
4.00091e-05
4.00179e-05
4.00269e-05
4.0036e-05
4.00452e-05
4.00543e-05
4.00631e-05
4.00716e-05
4.00797e-05
4.00874e-05
4.00945e-05
4.01012e-05
4.01074e-05
4.01131e-05
4.01182e-05
4.01228e-05
4.01266e-05
4.01296e-05
4.01318e-05
4.01329e-05
4.01329e-05
4.01316e-05
4.01288e-05
4.01243e-05
4.01178e-05
4.01089e-05
4.00973e-05
4.00825e-05
4.00638e-05
4.00408e-05
4.00127e-05
3.99787e-05
3.99379e-05
3.98894e-05
3.98322e-05
3.97652e-05
3.96873e-05
3.95978e-05
3.9494e-05
3.93743e-05
3.95121e-05
3.95158e-05
3.95193e-05
3.95235e-05
3.95292e-05
3.95378e-05
3.95504e-05
3.95674e-05
3.9589e-05
3.96168e-05
3.9651e-05
3.96883e-05
3.97256e-05
3.97611e-05
3.97939e-05
3.98232e-05
3.98488e-05
3.98707e-05
3.98889e-05
3.99038e-05
3.99159e-05
3.99257e-05
3.99337e-05
3.99404e-05
3.99461e-05
3.99514e-05
3.99563e-05
3.99612e-05
3.99662e-05
3.99713e-05
3.99766e-05
3.99821e-05
3.99877e-05
3.99933e-05
3.9999e-05
4.00046e-05
4.001e-05
4.00152e-05
4.002e-05
4.00245e-05
4.00286e-05
4.00322e-05
4.00354e-05
4.00379e-05
4.00396e-05
4.00405e-05
4.00403e-05
4.00389e-05
4.0036e-05
4.00315e-05
4.0025e-05
4.00162e-05
4.00048e-05
3.99902e-05
3.99721e-05
3.99499e-05
3.99229e-05
3.98905e-05
3.98519e-05
3.98064e-05
3.97531e-05
3.96912e-05
3.96196e-05
3.95375e-05
3.94437e-05
3.93374e-05
3.92175e-05
3.90811e-05
3.89313e-05
3.94289e-05
3.94286e-05
3.94288e-05
3.94293e-05
3.94301e-05
3.94315e-05
3.9434e-05
3.94383e-05
3.94451e-05
3.94557e-05
3.94705e-05
3.94892e-05
3.95121e-05
3.95408e-05
3.95746e-05
3.96108e-05
3.9647e-05
3.96817e-05
3.97139e-05
3.97434e-05
3.97698e-05
3.97932e-05
3.98138e-05
3.98316e-05
3.98471e-05
3.98605e-05
3.9872e-05
3.9882e-05
3.98908e-05
3.98985e-05
3.99053e-05
3.99114e-05
3.99168e-05
3.99217e-05
3.99261e-05
3.99299e-05
3.99332e-05
3.99359e-05
3.9938e-05
3.99395e-05
3.99403e-05
3.99402e-05
3.99392e-05
3.99372e-05
3.99339e-05
3.99291e-05
3.99227e-05
3.99143e-05
3.99037e-05
3.98905e-05
3.98743e-05
3.98547e-05
3.98312e-05
3.98033e-05
3.97704e-05
3.97319e-05
3.96872e-05
3.96355e-05
3.95762e-05
3.95084e-05
3.94314e-05
3.93443e-05
3.92462e-05
3.91363e-05
3.90132e-05
3.88762e-05
3.87238e-05
3.85553e-05
3.83619e-05
3.93338e-05
3.93314e-05
3.93292e-05
3.93273e-05
3.93256e-05
3.9324e-05
3.93225e-05
3.93213e-05
3.93206e-05
3.93209e-05
3.93226e-05
3.93263e-05
3.93326e-05
3.93423e-05
3.93557e-05
3.93724e-05
3.93922e-05
3.94161e-05
3.94448e-05
3.94768e-05
3.951e-05
3.95427e-05
3.95738e-05
3.96028e-05
3.96294e-05
3.96536e-05
3.96754e-05
3.96947e-05
3.97118e-05
3.97268e-05
3.97398e-05
3.9751e-05
3.97604e-05
3.97683e-05
3.97746e-05
3.97794e-05
3.97828e-05
3.97847e-05
3.97852e-05
3.97843e-05
3.97817e-05
3.97775e-05
3.97716e-05
3.97636e-05
3.97535e-05
3.9741e-05
3.97258e-05
3.97076e-05
3.96861e-05
3.96608e-05
3.96313e-05
3.95973e-05
3.95581e-05
3.95134e-05
3.94624e-05
3.94046e-05
3.93395e-05
3.92662e-05
3.91843e-05
3.90929e-05
3.89912e-05
3.88783e-05
3.87534e-05
3.86151e-05
3.84625e-05
3.82941e-05
3.81094e-05
3.79032e-05
3.76885e-05
3.92193e-05
3.9216e-05
3.92125e-05
3.92089e-05
3.92054e-05
3.92019e-05
3.91985e-05
3.91949e-05
3.91913e-05
3.91876e-05
3.91841e-05
3.91807e-05
3.91779e-05
3.9176e-05
3.91753e-05
3.91763e-05
3.91791e-05
3.91842e-05
3.91922e-05
3.9203e-05
3.92159e-05
3.92308e-05
3.92486e-05
3.92702e-05
3.92949e-05
3.93211e-05
3.93474e-05
3.93726e-05
3.93961e-05
3.94175e-05
3.94366e-05
3.94534e-05
3.94679e-05
3.948e-05
3.94896e-05
3.94969e-05
3.95017e-05
3.9504e-05
3.95038e-05
3.95011e-05
3.94957e-05
3.94876e-05
3.94766e-05
3.94626e-05
3.94453e-05
3.94244e-05
3.93998e-05
3.9371e-05
3.93378e-05
3.92998e-05
3.92566e-05
3.92077e-05
3.91528e-05
3.90912e-05
3.90226e-05
3.89463e-05
3.88617e-05
3.87683e-05
3.86651e-05
3.85514e-05
3.84262e-05
3.82885e-05
3.81369e-05
3.79703e-05
3.77872e-05
3.75859e-05
3.73647e-05
3.71173e-05
3.68415e-05
3.9077e-05
3.90733e-05
3.90691e-05
3.90646e-05
3.90599e-05
3.9055e-05
3.90501e-05
3.90449e-05
3.90396e-05
3.90341e-05
3.90283e-05
3.90223e-05
3.9016e-05
3.90095e-05
3.90029e-05
3.89965e-05
3.89902e-05
3.89844e-05
3.89792e-05
3.89749e-05
3.89716e-05
3.89694e-05
3.89685e-05
3.89692e-05
3.89716e-05
3.89751e-05
3.89795e-05
3.89845e-05
3.89912e-05
3.90003e-05
3.90118e-05
3.90245e-05
3.90371e-05
3.90486e-05
3.90581e-05
3.90652e-05
3.90695e-05
3.90707e-05
3.90688e-05
3.90637e-05
3.90555e-05
3.90438e-05
3.90284e-05
3.90092e-05
3.89857e-05
3.89578e-05
3.89252e-05
3.88876e-05
3.88447e-05
3.87961e-05
3.87414e-05
3.86802e-05
3.8612e-05
3.85364e-05
3.84528e-05
3.83606e-05
3.82589e-05
3.81469e-05
3.80236e-05
3.78879e-05
3.77388e-05
3.75747e-05
3.73942e-05
3.71954e-05
3.69756e-05
3.67309e-05
3.64551e-05
3.61379e-05
3.57598e-05
3.88964e-05
3.88923e-05
3.88877e-05
3.88826e-05
3.88771e-05
3.88713e-05
3.88651e-05
3.88586e-05
3.88518e-05
3.88448e-05
3.88374e-05
3.88296e-05
3.88214e-05
3.88129e-05
3.88038e-05
3.87943e-05
3.87844e-05
3.8774e-05
3.87633e-05
3.87522e-05
3.8741e-05
3.87295e-05
3.8718e-05
3.87064e-05
3.86948e-05
3.86833e-05
3.86718e-05
3.86603e-05
3.86487e-05
3.86372e-05
3.86258e-05
3.86141e-05
3.86017e-05
3.85881e-05
3.85737e-05
3.85593e-05
3.85458e-05
3.85333e-05
3.85214e-05
3.85092e-05
3.84951e-05
3.84779e-05
3.84569e-05
3.84317e-05
3.84021e-05
3.83679e-05
3.83287e-05
3.82838e-05
3.82328e-05
3.81753e-05
3.81107e-05
3.80387e-05
3.79587e-05
3.78699e-05
3.77715e-05
3.76625e-05
3.7542e-05
3.74088e-05
3.72618e-05
3.70996e-05
3.69206e-05
3.67225e-05
3.65022e-05
3.62551e-05
3.5974e-05
3.56487e-05
3.52665e-05
3.48101e-05
3.42657e-05
3.86637e-05
3.86591e-05
3.86538e-05
3.8648e-05
3.86417e-05
3.8635e-05
3.86277e-05
3.862e-05
3.86118e-05
3.86032e-05
3.85942e-05
3.85846e-05
3.85746e-05
3.85641e-05
3.8553e-05
3.85413e-05
3.8529e-05
3.8516e-05
3.85023e-05
3.8488e-05
3.84728e-05
3.84569e-05
3.84403e-05
3.84228e-05
3.84046e-05
3.83856e-05
3.83657e-05
3.83449e-05
3.83232e-05
3.83004e-05
3.82765e-05
3.82515e-05
3.82251e-05
3.81972e-05
3.81676e-05
3.81362e-05
3.81028e-05
3.80674e-05
3.80295e-05
3.79886e-05
3.79444e-05
3.7898e-05
3.78526e-05
3.78091e-05
3.77654e-05
3.77188e-05
3.76669e-05
3.76089e-05
3.75442e-05
3.74728e-05
3.73938e-05
3.73062e-05
3.72088e-05
3.71004e-05
3.69799e-05
3.68464e-05
3.66984e-05
3.65346e-05
3.63533e-05
3.61518e-05
3.5926e-05
3.56701e-05
3.5376e-05
3.50333e-05
3.46288e-05
3.41487e-05
3.35796e-05
3.29176e-05
3.21744e-05
3.83597e-05
3.83539e-05
3.83475e-05
3.83405e-05
3.8333e-05
3.83249e-05
3.83162e-05
3.8307e-05
3.82972e-05
3.82869e-05
3.82759e-05
3.82643e-05
3.82521e-05
3.82392e-05
3.82256e-05
3.82114e-05
3.81964e-05
3.81805e-05
3.81639e-05
3.81463e-05
3.81278e-05
3.81083e-05
3.80878e-05
3.80661e-05
3.80432e-05
3.80191e-05
3.79936e-05
3.79668e-05
3.79384e-05
3.79085e-05
3.78768e-05
3.78433e-05
3.78079e-05
3.77703e-05
3.77304e-05
3.76879e-05
3.76427e-05
3.75946e-05
3.75433e-05
3.74883e-05
3.74293e-05
3.73659e-05
3.72979e-05
3.72248e-05
3.7146e-05
3.70608e-05
3.69697e-05
3.68761e-05
3.67817e-05
3.66834e-05
3.6577e-05
3.64595e-05
3.633e-05
3.6188e-05
3.60319e-05
3.58598e-05
3.56691e-05
3.54564e-05
3.52167e-05
3.49423e-05
3.46241e-05
3.42514e-05
3.38106e-05
3.32935e-05
3.2693e-05
3.20109e-05
3.12567e-05
3.04695e-05
2.9711e-05
3.79547e-05
3.79469e-05
3.79384e-05
3.79294e-05
3.79198e-05
3.79096e-05
3.78988e-05
3.78873e-05
3.78752e-05
3.78623e-05
3.78488e-05
3.78345e-05
3.78194e-05
3.78035e-05
3.77867e-05
3.77691e-05
3.77505e-05
3.77309e-05
3.77104e-05
3.76887e-05
3.76658e-05
3.76418e-05
3.76164e-05
3.75896e-05
3.75613e-05
3.75315e-05
3.74999e-05
3.74665e-05
3.74312e-05
3.73937e-05
3.73541e-05
3.7312e-05
3.72673e-05
3.72197e-05
3.71691e-05
3.71152e-05
3.70577e-05
3.69963e-05
3.69307e-05
3.68605e-05
3.67851e-05
3.67042e-05
3.66172e-05
3.65233e-05
3.64221e-05
3.63126e-05
3.61939e-05
3.60652e-05
3.59255e-05
3.57735e-05
3.5607e-05
3.54278e-05
3.52419e-05
3.50454e-05
3.48319e-05
3.45954e-05
3.43278e-05
3.40196e-05
3.36608e-05
3.32415e-05
3.27552e-05
3.21952e-05
3.15535e-05
3.08615e-05
3.01321e-05
2.94273e-05
2.87529e-05
2.81633e-05
2.77885e-05
3.73996e-05
3.73886e-05
3.73769e-05
3.73646e-05
3.73516e-05
3.73381e-05
3.73239e-05
3.73089e-05
3.72932e-05
3.72767e-05
3.72593e-05
3.72411e-05
3.72219e-05
3.72018e-05
3.71806e-05
3.71583e-05
3.71348e-05
3.71102e-05
3.70842e-05
3.70569e-05
3.70281e-05
3.69978e-05
3.69659e-05
3.69322e-05
3.68966e-05
3.6859e-05
3.68193e-05
3.67772e-05
3.67326e-05
3.66854e-05
3.66352e-05
3.6582e-05
3.65253e-05
3.64649e-05
3.64005e-05
3.63317e-05
3.62582e-05
3.61796e-05
3.60953e-05
3.60049e-05
3.59076e-05
3.58029e-05
3.56899e-05
3.55678e-05
3.54357e-05
3.52924e-05
3.51368e-05
3.49674e-05
3.47824e-05
3.458e-05
3.43575e-05
3.41119e-05
3.38381e-05
3.35338e-05
3.32042e-05
3.28389e-05
3.24188e-05
3.19333e-05
3.13878e-05
3.07901e-05
3.01507e-05
2.94825e-05
2.88427e-05
2.82271e-05
2.76678e-05
2.72453e-05
2.70513e-05
2.72063e-05
2.80576e-05
3.66074e-05
3.65915e-05
3.6575e-05
3.65579e-05
3.654e-05
3.65214e-05
3.6502e-05
3.64817e-05
3.64606e-05
3.64386e-05
3.64155e-05
3.63914e-05
3.63661e-05
3.63397e-05
3.6312e-05
3.62829e-05
3.62524e-05
3.62204e-05
3.61867e-05
3.61514e-05
3.61142e-05
3.6075e-05
3.60337e-05
3.59902e-05
3.59442e-05
3.58957e-05
3.58444e-05
3.57901e-05
3.57325e-05
3.56714e-05
3.56065e-05
3.55375e-05
3.54639e-05
3.53855e-05
3.53016e-05
3.52121e-05
3.51162e-05
3.50136e-05
3.49033e-05
3.47847e-05
3.46568e-05
3.45187e-05
3.43691e-05
3.42068e-05
3.40302e-05
3.38376e-05
3.36267e-05
3.33949e-05
3.3139e-05
3.28554e-05
3.25395e-05
3.21865e-05
3.17915e-05
3.13504e-05
3.08601e-05
3.03249e-05
2.97481e-05
2.91432e-05
2.85282e-05
2.79479e-05
2.74015e-05
2.69214e-05
2.65644e-05
2.64034e-05
2.64928e-05
2.707e-05
2.82661e-05
3.0309e-05
3.34393e-05
3.54178e-05
3.53952e-05
3.53718e-05
3.53476e-05
3.53225e-05
3.52965e-05
3.52696e-05
3.52417e-05
3.52127e-05
3.51825e-05
3.51511e-05
3.51184e-05
3.50843e-05
3.50487e-05
3.50116e-05
3.49727e-05
3.49321e-05
3.48895e-05
3.48449e-05
3.4798e-05
3.47489e-05
3.46972e-05
3.46428e-05
3.45855e-05
3.45251e-05
3.44613e-05
3.43939e-05
3.43226e-05
3.4247e-05
3.41668e-05
3.40816e-05
3.39909e-05
3.38942e-05
3.3791e-05
3.36807e-05
3.35626e-05
3.34359e-05
3.32995e-05
3.31524e-05
3.29934e-05
3.2821e-05
3.26336e-05
3.24292e-05
3.22055e-05
3.19598e-05
3.1689e-05
3.13895e-05
3.10572e-05
3.06886e-05
3.02803e-05
2.98301e-05
2.93375e-05
2.88125e-05
2.8263e-05
2.77005e-05
2.71761e-05
2.66781e-05
2.62386e-05
2.58926e-05
2.56846e-05
2.56305e-05
2.5872e-05
2.64787e-05
2.75556e-05
2.92153e-05
3.1615e-05
3.49626e-05
3.95275e-05
4.55082e-05
3.35259e-05
3.34935e-05
3.34603e-05
3.34262e-05
3.33909e-05
3.33546e-05
3.3317e-05
3.32781e-05
3.32379e-05
3.31962e-05
3.31529e-05
3.3108e-05
3.30614e-05
3.30129e-05
3.29624e-05
3.29097e-05
3.28548e-05
3.27974e-05
3.27374e-05
3.26747e-05
3.26089e-05
3.254e-05
3.24675e-05
3.23914e-05
3.23112e-05
3.22267e-05
3.21375e-05
3.20433e-05
3.19435e-05
3.18376e-05
3.17253e-05
3.16057e-05
3.14784e-05
3.13424e-05
3.11968e-05
3.10403e-05
3.08715e-05
3.0689e-05
3.04908e-05
3.02751e-05
3.00396e-05
2.97817e-05
2.94991e-05
2.91892e-05
2.88499e-05
2.84787e-05
2.80748e-05
2.76412e-05
2.71832e-05
2.6709e-05
2.62296e-05
2.5763e-05
2.53797e-05
2.5065e-05
2.48376e-05
2.46873e-05
2.46932e-05
2.49419e-05
2.54447e-05
2.62523e-05
2.73909e-05
2.89175e-05
3.09244e-05
3.35334e-05
3.68975e-05
4.11965e-05
4.66133e-05
5.3247e-05
6.06624e-05
3.03704e-05
3.03262e-05
3.02812e-05
3.02351e-05
3.01878e-05
3.01391e-05
3.0089e-05
3.00374e-05
2.99842e-05
2.99293e-05
2.98725e-05
2.98139e-05
2.97531e-05
2.96902e-05
2.9625e-05
2.95573e-05
2.94869e-05
2.94136e-05
2.93374e-05
2.92579e-05
2.91749e-05
2.90882e-05
2.89974e-05
2.89023e-05
2.88026e-05
2.86978e-05
2.85876e-05
2.84714e-05
2.83489e-05
2.82195e-05
2.80825e-05
2.79372e-05
2.7782e-05
2.76144e-05
2.74331e-05
2.7237e-05
2.70248e-05
2.67956e-05
2.65486e-05
2.62833e-05
2.59998e-05
2.56991e-05
2.5384e-05
2.50584e-05
2.47279e-05
2.44054e-05
2.41061e-05
2.38452e-05
2.36391e-05
2.35049e-05
2.34585e-05
2.35226e-05
2.379e-05
2.42204e-05
2.483e-05
2.56223e-05
2.66024e-05
2.77845e-05
2.91877e-05
3.08482e-05
3.28238e-05
3.52081e-05
3.81325e-05
4.1726e-05
4.61647e-05
5.14804e-05
5.72234e-05
6.26886e-05
6.57915e-05
2.5086e-05
2.50379e-05
2.49894e-05
2.49403e-05
2.48903e-05
2.48393e-05
2.47874e-05
2.47344e-05
2.46802e-05
2.46247e-05
2.45679e-05
2.45096e-05
2.44498e-05
2.43883e-05
2.4325e-05
2.42597e-05
2.41925e-05
2.4123e-05
2.40512e-05
2.39769e-05
2.38999e-05
2.38201e-05
2.37372e-05
2.3651e-05
2.35613e-05
2.34678e-05
2.33703e-05
2.32687e-05
2.31626e-05
2.30518e-05
2.29362e-05
2.28161e-05
2.26932e-05
2.25696e-05
2.24471e-05
2.23275e-05
2.22131e-05
2.21068e-05
2.2012e-05
2.19331e-05
2.1875e-05
2.18438e-05
2.18459e-05
2.1892e-05
2.20193e-05
2.22764e-05
2.2637e-05
2.30827e-05
2.36099e-05
2.42166e-05
2.48993e-05
2.56521e-05
2.64694e-05
2.73438e-05
2.8268e-05
2.92396e-05
3.02713e-05
3.14041e-05
3.27241e-05
3.43587e-05
3.64007e-05
3.87555e-05
4.13303e-05
4.43411e-05
4.80085e-05
5.11839e-05
5.1572e-05
4.94136e-05
4.57266e-05
1.82113e-05
1.8315e-05
1.84148e-05
1.85124e-05
1.86087e-05
1.87039e-05
1.87979e-05
1.88909e-05
1.89826e-05
1.90733e-05
1.91628e-05
1.92512e-05
1.93385e-05
1.94247e-05
1.95099e-05
1.95941e-05
1.96775e-05
1.97602e-05
1.98421e-05
1.99234e-05
2.00043e-05
2.00849e-05
2.01653e-05
2.02458e-05
2.03264e-05
2.04076e-05
2.04919e-05
2.05852e-05
2.069e-05
2.08075e-05
2.09393e-05
2.10859e-05
2.12481e-05
2.1427e-05
2.16236e-05
2.18387e-05
2.20733e-05
2.2328e-05
2.26032e-05
2.28989e-05
2.32144e-05
2.35481e-05
2.38974e-05
2.42585e-05
2.4626e-05
2.49918e-05
2.53463e-05
2.56772e-05
2.59704e-05
2.62114e-05
2.63871e-05
2.64901e-05
2.65248e-05
2.65062e-05
2.64239e-05
2.63454e-05
2.63452e-05
2.65384e-05
2.72042e-05
2.86035e-05
2.9936e-05
2.94188e-05
2.80481e-05
2.68412e-05
2.58526e-05
2.71125e-05
2.75168e-05
2.67894e-05
2.60627e-05
1.72322e-05
1.73817e-05
1.75323e-05
1.76843e-05
1.78374e-05
1.79911e-05
1.81451e-05
1.8299e-05
1.84523e-05
1.86049e-05
1.87564e-05
1.89065e-05
1.90549e-05
1.92013e-05
1.93455e-05
1.94873e-05
1.96263e-05
1.97623e-05
1.98951e-05
2.00242e-05
2.01495e-05
2.02706e-05
2.0387e-05
2.04985e-05
2.06044e-05
2.07041e-05
2.0794e-05
2.08679e-05
2.09243e-05
2.09629e-05
2.09836e-05
2.09862e-05
2.09701e-05
2.09339e-05
2.0876e-05
2.07943e-05
2.06858e-05
2.05473e-05
2.03747e-05
2.01636e-05
1.99084e-05
1.96031e-05
1.92408e-05
1.88139e-05
1.83142e-05
1.77331e-05
1.70616e-05
1.62913e-05
1.54151e-05
1.44287e-05
1.33353e-05
1.21555e-05
1.09316e-05
9.6732e-06
8.5857e-06
7.82471e-06
7.09947e-06
6.2993e-06
6.28008e-06
7.08729e-06
7.67413e-06
7.36936e-06
6.66047e-06
6.37233e-06
6.431e-06
6.70168e-06
6.79903e-06
6.69649e-06
6.86353e-06
4.02031e-05
4.01781e-05
4.01592e-05
4.01447e-05
4.01363e-05
4.01369e-05
4.01461e-05
4.01552e-05
4.01533e-05
4.01472e-05
4.01453e-05
4.01402e-05
4.01267e-05
4.01051e-05
4.00944e-05
4.01098e-05
4.0105e-05
4.00892e-05
4.00801e-05
4.00733e-05
4.00524e-05
3.99813e-05
3.99665e-05
3.99639e-05
3.9971e-05
3.99986e-05
3.99949e-05
3.9988e-05
3.99838e-05
3.99908e-05
3.99937e-05
3.99785e-05
3.99534e-05
3.99377e-05
3.99436e-05
3.99833e-05
4.00025e-05
3.99834e-05
3.99693e-05
3.99728e-05
3.99704e-05
3.99699e-05
3.9966e-05
3.99879e-05
4.00138e-05
4.00323e-05
4.0042e-05
4.00484e-05
4.00437e-05
4.00285e-05
4.00227e-05
4.0027e-05
4.00434e-05
4.00569e-05
4.00793e-05
4.01095e-05
4.01332e-05
4.01479e-05
4.01571e-05
4.01557e-05
4.01472e-05
4.01455e-05
4.0149e-05
4.01566e-05
4.01655e-05
4.01646e-05
4.01539e-05
4.01382e-05
4.01303e-05
4.01229e-05
4.0111e-05
4.00973e-05
4.00905e-05
4.00975e-05
4.01004e-05
4.00811e-05
4.00681e-05
4.00601e-05
4.00474e-05
4.00118e-05
3.99565e-05
3.99485e-05
3.99483e-05
3.99591e-05
3.99826e-05
3.99777e-05
3.99709e-05
3.99663e-05
3.99716e-05
3.99747e-05
3.99629e-05
3.99404e-05
3.99221e-05
3.99209e-05
3.99521e-05
3.99788e-05
3.99727e-05
3.99566e-05
3.99522e-05
3.99501e-05
3.99486e-05
3.99444e-05
3.99522e-05
3.99727e-05
3.9994e-05
4.00091e-05
4.00197e-05
4.00327e-05
4.00309e-05
4.00207e-05
4.0013e-05
4.00134e-05
4.00181e-05
4.00262e-05
4.00414e-05
4.00613e-05
4.0087e-05
4.01118e-05
4.0161e-05
4.01664e-05
4.01736e-05
4.01756e-05
4.01722e-05
4.01608e-05
4.01412e-05
4.0124e-05
4.01113e-05
4.01025e-05
4.00934e-05
4.00855e-05
4.00841e-05
4.00911e-05
4.00911e-05
4.00734e-05
4.00551e-05
4.00452e-05
4.00352e-05
4.00137e-05
3.99728e-05
3.99329e-05
3.99289e-05
3.99317e-05
3.99453e-05
3.99645e-05
3.99589e-05
3.99518e-05
3.99471e-05
3.99511e-05
3.9954e-05
3.99451e-05
3.99258e-05
3.99066e-05
3.98995e-05
3.9921e-05
3.99498e-05
3.99557e-05
3.99438e-05
3.99344e-05
3.99297e-05
3.99265e-05
3.99223e-05
3.99226e-05
3.9934e-05
3.99524e-05
3.99697e-05
3.99829e-05
4.00015e-05
4.00189e-05
4.00239e-05
4.00141e-05
4.00033e-05
3.99968e-05
3.9995e-05
3.99976e-05
4.00051e-05
4.0018e-05
4.00349e-05
4.01894e-05
4.01852e-05
4.01764e-05
4.01609e-05
4.01398e-05
4.01176e-05
4.0101e-05
4.00888e-05
4.00808e-05
4.00754e-05
4.00729e-05
4.00747e-05
4.00791e-05
4.00774e-05
4.00616e-05
4.00417e-05
4.00281e-05
4.00187e-05
4.00035e-05
3.99752e-05
3.99363e-05
3.99092e-05
3.99082e-05
3.99139e-05
3.9929e-05
3.99443e-05
3.99382e-05
3.99307e-05
3.9926e-05
3.99289e-05
3.99315e-05
3.99249e-05
3.99088e-05
3.98899e-05
3.98786e-05
3.98908e-05
3.99173e-05
3.99318e-05
3.99274e-05
3.99174e-05
3.99099e-05
3.99046e-05
3.98996e-05
3.98963e-05
3.99e-05
3.99118e-05
3.99272e-05
3.99411e-05
3.99565e-05
3.99785e-05
4.00015e-05
4.00123e-05
4.00117e-05
4.00006e-05
3.99896e-05
3.99817e-05
3.99776e-05
3.99777e-05
3.9982e-05
4.01688e-05
4.01491e-05
4.01268e-05
4.01044e-05
4.00871e-05
4.00734e-05
4.0065e-05
4.00605e-05
4.00593e-05
4.00603e-05
4.00624e-05
4.0063e-05
4.0058e-05
4.00442e-05
4.00247e-05
4.00092e-05
3.99985e-05
3.99863e-05
3.99654e-05
3.99343e-05
3.99017e-05
3.98844e-05
3.98862e-05
3.98944e-05
3.99098e-05
3.99217e-05
3.99153e-05
3.99074e-05
3.99028e-05
3.99048e-05
3.9907e-05
3.99023e-05
3.9889e-05
3.98714e-05
3.98574e-05
3.98615e-05
3.98828e-05
3.99018e-05
3.99054e-05
3.98984e-05
3.989e-05
3.9883e-05
3.98766e-05
3.98712e-05
3.98696e-05
3.98745e-05
3.98851e-05
3.98973e-05
3.99097e-05
3.99258e-05
3.99476e-05
3.99746e-05
3.99945e-05
4.0003e-05
4.00027e-05
3.99928e-05
3.99815e-05
3.99721e-05
3.99658e-05
4.01028e-05
4.00818e-05
4.0067e-05
4.00552e-05
4.00479e-05
4.00441e-05
4.00434e-05
4.00445e-05
4.00458e-05
4.00457e-05
4.00424e-05
4.00339e-05
4.00195e-05
4.00023e-05
3.99866e-05
3.99749e-05
3.99636e-05
3.99471e-05
3.99224e-05
3.98927e-05
3.98679e-05
3.98581e-05
3.98624e-05
3.98729e-05
3.98877e-05
3.98963e-05
3.98897e-05
3.98816e-05
3.98769e-05
3.98783e-05
3.98801e-05
3.98767e-05
3.98661e-05
3.98504e-05
3.98352e-05
3.98327e-05
3.98474e-05
3.9867e-05
3.98769e-05
3.98752e-05
3.98682e-05
3.98605e-05
3.98532e-05
3.98463e-05
3.98413e-05
3.98407e-05
3.98455e-05
3.98539e-05
3.98636e-05
3.98745e-05
3.98895e-05
3.99097e-05
3.99361e-05
3.99629e-05
3.99826e-05
3.9993e-05
3.9996e-05
3.99929e-05
3.99891e-05
4.00431e-05
4.00348e-05
4.00301e-05
4.00274e-05
4.00267e-05
4.00269e-05
4.0027e-05
4.00258e-05
4.00219e-05
4.00145e-05
4.00033e-05
3.99889e-05
3.99731e-05
3.99586e-05
3.99467e-05
3.99357e-05
3.99216e-05
3.99015e-05
3.98761e-05
3.98509e-05
3.98337e-05
3.98299e-05
3.98367e-05
3.98486e-05
3.98621e-05
3.98678e-05
3.9861e-05
3.98527e-05
3.98481e-05
3.98489e-05
3.98503e-05
3.9848e-05
3.98397e-05
3.9826e-05
3.98108e-05
3.98036e-05
3.98115e-05
3.98285e-05
3.98422e-05
3.9846e-05
3.98424e-05
3.98357e-05
3.98281e-05
3.98205e-05
3.98136e-05
3.98092e-05
3.98088e-05
3.98125e-05
3.98186e-05
3.98261e-05
3.98352e-05
3.98475e-05
3.98648e-05
3.98865e-05
3.99144e-05
3.99417e-05
3.99637e-05
3.99788e-05
3.99897e-05
4.00136e-05
4.00094e-05
4.00081e-05
4.00063e-05
4.00043e-05
4.00009e-05
3.99956e-05
3.99878e-05
3.99775e-05
3.99649e-05
3.99509e-05
3.99368e-05
3.99239e-05
3.99127e-05
3.9902e-05
3.98893e-05
3.98722e-05
3.98507e-05
3.98278e-05
3.98085e-05
3.97983e-05
3.97992e-05
3.98083e-05
3.98209e-05
3.98324e-05
3.98356e-05
3.98286e-05
3.98202e-05
3.98156e-05
3.9816e-05
3.98172e-05