/*--------------------------------*- C++ -*----------------------------------*\
| =========                 |                                                 |
| \\      /  F ield         | OpenFOAM: The Open Source CFD Toolbox           |
|  \\    /   O peration     | Version:  2312                                  |
|   \\  /    A nd           | Website:  www.openfoam.com                      |
|    \\/     M anipulation  |                                                 |
\*---------------------------------------------------------------------------*/
FoamFile
{
    version     2.0;
    format      ascii;
    arch        "LSB;label=32;scalar=64";
    class       volScalarField;
    location    "1600";
    object      p;
}
// * * * * * * * * * * * * * * * * * * * * * * * * * * * * * * * * * * * * * //

dimensions      [0 2 -2 0 0 0 0];

internalField   nonuniform List<scalar> 
76025
(
-0.000142404
-0.000154499
-0.000166826
-0.000179407
-0.000191872
-0.000204544
-0.000217468
-0.000230042
-0.000242993
-0.000255863
-0.000268721
-0.000281573
-0.000294466
-0.000307277
-0.000320329
-0.000333231
-0.000345937
-0.000358696
-0.000371504
-0.000384141
-0.000396591
-0.000409206
-0.00042155
-0.000433562
-0.000445432
-0.000456954
-0.000468739
-0.000480388
-0.000491229
-0.000502587
-0.000513493
-0.000523601
-0.000533779
-0.000543721
-0.000553358
-0.000562645
-0.000571202
-0.000580138
-0.000588413
-0.000596242
-0.000603533
-0.000610387
-0.000617595
-0.00062416
-0.000630316
-0.000635942
-0.000641589
-0.000646812
-0.000651023
-0.000655039
-0.000658874
-0.000662156
-0.000665281
-0.000668318
-0.000670901
-0.000672122
-0.000673995
-0.000674797
-0.000675409
-0.000675996
-0.000676443
-0.000675974
-0.000675534
-0.000675375
-0.000674654
-0.000672775
-0.000671738
-0.000671433
-0.000669775
-0.000147904
-0.000160608
-0.000173399
-0.000186447
-0.000199643
-0.000212948
-0.000226264
-0.000239645
-0.000253097
-0.000266556
-0.000280022
-0.000293503
-0.000307025
-0.000320554
-0.00033401
-0.000347372
-0.000360768
-0.000374042
-0.000387375
-0.000400555
-0.000413692
-0.000426645
-0.000439415
-0.000451944
-0.00046434
-0.000476639
-0.000488809
-0.00050065
-0.000512226
-0.000523583
-0.000534641
-0.000545569
-0.000556239
-0.000566511
-0.000576537
-0.000586157
-0.000595423
-0.000604365
-0.000612897
-0.00062113
-0.000628939
-0.000636426
-0.000643613
-0.000650311
-0.000656656
-0.000662623
-0.000668318
-0.000673544
-0.000678243
-0.000682666
-0.000686829
-0.000690587
-0.000694043
-0.000697194
-0.00069986
-0.000701946
-0.00070392
-0.000705404
-0.00070652
-0.000707323
-0.000708052
-0.000708466
-0.000708454
-0.000708377
-0.00070802
-0.000707281
-0.000706743
-0.000706364
-0.00070518
-0.000154457
-0.000167725
-0.000181093
-0.000194755
-0.000208613
-0.000222516
-0.000236451
-0.000250445
-0.000264486
-0.000278566
-0.000292671
-0.000306793
-0.000320928
-0.000335044
-0.000349087
-0.000363089
-0.000377037
-0.000390925
-0.000404744
-0.000418479
-0.000432083
-0.000445521
-0.000458798
-0.000471912
-0.000484867
-0.000497658
-0.000510204
-0.000522491
-0.000534531
-0.000546296
-0.000557848
-0.000569179
-0.00058017
-0.000590805
-0.000601101
-0.000611036
-0.000620604
-0.00062981
-0.000638681
-0.000647192
-0.000655295
-0.000662984
-0.000670285
-0.000677221
-0.000683817
-0.000690065
-0.000695974
-0.000701517
-0.000706661
-0.000711446
-0.0007159
-0.000719993
-0.000723733
-0.000727129
-0.000730144
-0.000732737
-0.000735008
-0.000736934
-0.000738516
-0.00073983
-0.000740949
-0.000741807
-0.000742359
-0.000742753
-0.000742978
-0.000742963
-0.000742851
-0.000742881
-0.000742247
-0.000161436
-0.000175318
-0.00018932
-0.000203632
-0.00021813
-0.000232688
-0.00024727
-0.000261884
-0.000276539
-0.000291238
-0.000305969
-0.000320715
-0.000335454
-0.000350166
-0.00036483
-0.000379439
-0.000393983
-0.000408455
-0.000422836
-0.00043711
-0.000451248
-0.000465237
-0.000479066
-0.000492719
-0.000506176
-0.000519421
-0.000532436
-0.000545204
-0.000557712
-0.000569952
-0.000581924
-0.000593603
-0.000604953
-0.000615956
-0.000626607
-0.000636903
-0.000646837
-0.000656408
-0.00066561
-0.00067442
-0.000682819
-0.000690807
-0.000698411
-0.000705661
-0.000712565
-0.000719127
-0.000725344
-0.000731202
-0.000736679
-0.000741782
-0.000746536
-0.000750941
-0.000754995
-0.000758701
-0.000762053
-0.000765039
-0.000767693
-0.00077004
-0.000772084
-0.000773863
-0.000775416
-0.000776745
-0.000777838
-0.000778754
-0.000779507
-0.000780102
-0.000780576
-0.000781138
-0.000780987
-0.000168865
-0.000183399
-0.000198052
-0.000213024
-0.000228183
-0.000243408
-0.000258654
-0.000273927
-0.000289242
-0.000304601
-0.00031999
-0.000335385
-0.000350765
-0.000366112
-0.000381412
-0.000396654
-0.000411827
-0.000426917
-0.000441905
-0.000456774
-0.000471503
-0.000486075
-0.000500472
-0.000514674
-0.000528665
-0.000542431
-0.000555958
-0.000569227
-0.000582224
-0.000594935
-0.000607348
-0.000619446
-0.000631212
-0.00064263
-0.000653688
-0.000664379
-0.000674694
-0.000684623
-0.000694158
-0.000703288
-0.000712007
-0.000720314
-0.000728221
-0.000735758
-0.000742944
-0.000749783
-0.000756271
-0.000762401
-0.000768164
-0.000773565
-0.000778616
-0.000783324
-0.00078769
-0.000791718
-0.000795413
-0.000798778
-0.000801832
-0.000804597
-0.000807088
-0.000809331
-0.000811355
-0.000813176
-0.000814804
-0.000816273
-0.000817593
-0.00081882
-0.000819934
-0.000821171
-0.000821928
-0.000176946
-0.000192169
-0.000207506
-0.000223173
-0.000239036
-0.000254964
-0.000270913
-0.000286888
-0.000302905
-0.000318965
-0.00033505
-0.000351135
-0.0003672
-0.000383229
-0.000399207
-0.000415122
-0.000430958
-0.000446698
-0.000462325
-0.000477818
-0.00049316
-0.00050833
-0.000523311
-0.000538085
-0.000552635
-0.000566947
-0.000581003
-0.000594785
-0.000608279
-0.000621468
-0.000634338
-0.000646874
-0.000659064
-0.000670891
-0.000682343
-0.000693409
-0.000704079
-0.000714348
-0.000724209
-0.000733656
-0.000742681
-0.000751282
-0.000759473
-0.000767285
-0.000774745
-0.00078186
-0.000788626
-0.00079504
-0.000801099
-0.000806806
-0.000812168
-0.000817191
-0.000821883
-0.00082625
-0.000830302
-0.000834049
-0.000837508
-0.000840698
-0.00084364
-0.000846356
-0.000848871
-0.000851208
-0.000853386
-0.000855432
-0.000857348
-0.000859225
-0.000860993
-0.000862933
-0.000864458
-0.00018579
-0.000201737
-0.000217802
-0.000234212
-0.000250824
-0.000267502
-0.000284198
-0.000300916
-0.000317673
-0.000334468
-0.000351284
-0.000368097
-0.000384885
-0.000401629
-0.000418316
-0.000434929
-0.000451451
-0.000467865
-0.000484151
-0.00050029
-0.000516263
-0.000532051
-0.000547635
-0.000562999
-0.000578123
-0.000592991
-0.000607584
-0.000621887
-0.000635881
-0.000649552
-0.000662885
-0.000675865
-0.00068848
-0.000700716
-0.000712559
-0.000723999
-0.000735029
-0.000745644
-0.000755838
-0.000765605
-0.000774937
-0.000783836
-0.000792318
-0.000800416
-0.00080816
-0.000815557
-0.000822607
-0.000829308
-0.000835659
-0.000841664
-0.000847329
-0.000852664
-0.000857679
-0.000862385
-0.000866796
-0.000870926
-0.000874791
-0.000878413
-0.000881813
-0.000885014
-0.00088804
-0.000890916
-0.000893667
-0.00089631
-0.000898863
-0.000901415
-0.000903853
-0.000906525
-0.000908643
-0.000195461
-0.000212171
-0.000229007
-0.000246201
-0.000263607
-0.000281077
-0.000298561
-0.000316063
-0.000333598
-0.000351167
-0.000368752
-0.000386329
-0.000403872
-0.000421364
-0.000438788
-0.000456127
-0.000473363
-0.000490479
-0.000507453
-0.000524267
-0.000540899
-0.000557331
-0.000573543
-0.000589517
-0.000605233
-0.000620674
-0.000635821
-0.000650656
-0.000665164
-0.000679328
-0.000693133
-0.000706566
-0.000719615
-0.000732264
-0.000744502
-0.00075632
-0.000767711
-0.000778672
-0.000789195
-0.000799277
-0.000808911
-0.000818103
-0.000826871
-0.000835251
-0.000843272
-0.000850943
-0.000858268
-0.000865245
-0.000871878
-0.000878173
-0.000884138
-0.000889785
-0.000895127
-0.000900179
-0.000904956
-0.000909476
-0.000913758
-0.000917823
-0.000921694
-0.000925395
-0.000928952
-0.000932393
-0.00093574
-0.000939011
-0.000942248
-0.000945507
-0.000948684
-0.000952154
-0.000955024
-0.000206055
-0.000223575
-0.000241223
-0.000259247
-0.000277487
-0.000295793
-0.000314108
-0.000332436
-0.000350793
-0.000369179
-0.000387577
-0.000405958
-0.000424297
-0.000442574
-0.000460772
-0.000478873
-0.000496861
-0.000514713
-0.00053241
-0.000549929
-0.000567251
-0.000584354
-0.000601219
-0.000617825
-0.000634153
-0.000650185
-0.000665901
-0.000681283
-0.000696316
-0.000710982
-0.000725268
-0.000739159
-0.000752643
-0.000765705
-0.000778336
-0.000790528
-0.000802275
-0.000813573
-0.000824419
-0.000834806
-0.000844735
-0.00085421
-0.000863255
-0.000871907
-0.000880196
-0.000888133
-0.000895724
-0.00090297
-0.000909879
-0.000916458
-0.00092272
-0.000928678
-0.000934348
-0.000939748
-0.000944895
-0.000949811
-0.000954515
-0.000959032
-0.000963386
-0.000967602
-0.000971709
-0.000975734
-0.000979699
-0.000983636
-0.000987597
-0.000991606
-0.00099563
-0.000999957
-0.00100389
-0.000217706
-0.000236084
-0.000254592
-0.00027349
-0.000292613
-0.0003118
-0.000330992
-0.000350193
-0.000369419
-0.000388669
-0.000407924
-0.000427154
-0.000446333
-0.000465439
-0.000484454
-0.000503358
-0.000522134
-0.00054076
-0.000559212
-0.000577469
-0.000595509
-0.00061331
-0.000630851
-0.000648112
-0.000665071
-0.000681711
-0.00069801
-0.000713952
-0.00072952
-0.000744696
-0.000759466
-0.000773817
-0.000787736
-0.00080121
-0.000814229
-0.000826788
-0.000838883
-0.00085051
-0.000861665
-0.000872346
-0.000882555
-0.0008923
-0.000901608
-0.00091052
-0.000919064
-0.000927254
-0.000935098
-0.000942603
-0.000949777
-0.000956632
-0.000963182
-0.000969446
-0.000975441
-0.000981188
-0.000986707
-0.000992022
-0.000997156
-0.00100213
-0.00100698
-0.00101173
-0.0010164
-0.00102103
-0.00102564
-0.00103028
-0.00103498
-0.00103978
-0.00104468
-0.00105002
-0.00105526
-0.000230556
-0.000249844
-0.000269263
-0.000289087
-0.000309143
-0.000329262
-0.000349381
-0.000369503
-0.000389645
-0.000409807
-0.000429967
-0.000450094
-0.00047016
-0.00049014
-0.000510015
-0.000529765
-0.000549369
-0.000568805
-0.000588049
-0.000607077
-0.000625866
-0.000644394
-0.000662637
-0.000680576
-0.000698188
-0.000715453
-0.000732352
-0.000748866
-0.000764978
-0.00078067
-0.000795929
-0.000810741
-0.000825092
-0.000838973
-0.000852373
-0.00086529
-0.00087772
-0.000889661
-0.000901109
-0.000912067
-0.000922538
-0.000932535
-0.000942089
-0.000951241
-0.000960023
-0.000968449
-0.000976529
-0.000984275
-0.000991699
-0.000998816
-0.00100565
-0.00101221
-0.00101852
-0.00102461
-0.0010305
-0.00103622
-0.00104178
-0.00104723
-0.00105258
-0.00105787
-0.00106312
-0.00106838
-0.00107367
-0.00107904
-0.0010845
-0.00109012
-0.00109585
-0.00110207
-0.00110816
-0.000244761
-0.000265014
-0.000285399
-0.000306204
-0.000327249
-0.000348354
-0.000369453
-0.00039055
-0.00041166
-0.000432783
-0.000453898
-0.000474972
-0.000495972
-0.000516873
-0.000537654
-0.000558294
-0.00057877
-0.000599058
-0.000619133
-0.000638969
-0.000658541
-0.000677827
-0.000696802
-0.000715444
-0.000733731
-0.000751642
-0.000769156
-0.000786254
-0.000802918
-0.000819131
-0.00083488
-0.000850151
-0.00086493
-0.000879208
-0.000892979
-0.000906239
-0.000918987
-0.000931222
-0.000942943
-0.000954154
-0.000964863
-0.000975089
-0.000984863
-0.000994233
-0.00100323
-0.00101186
-0.00102016
-0.00102812
-0.00103577
-0.00104314
-0.00105023
-0.00105707
-0.00106369
-0.00107012
-0.00107638
-0.00108249
-0.00108849
-0.00109441
-0.00110027
-0.00110611
-0.00111197
-0.00111787
-0.00112387
-0.00112999
-0.00113627
-0.00114278
-0.00114937
-0.00115641
-0.00116258
-0.000260506
-0.000281783
-0.000303193
-0.00032504
-0.000347133
-0.000369284
-0.000391422
-0.00041355
-0.000435683
-0.000457823
-0.000479946
-0.000502018
-0.000524004
-0.000545876
-0.000567612
-0.000589188
-0.000610581
-0.000631764
-0.00065271
-0.000673393
-0.000693785
-0.000713862
-0.000733599
-0.000752972
-0.000771957
-0.000790532
-0.000808676
-0.00082637
-0.000843594
-0.000860333
-0.000876571
-0.000892296
-0.000907494
-0.000922158
-0.000936284
-0.000949869
-0.000962913
-0.000975416
-0.000987381
-0.000998816
-0.00100973
-0.00102015
-0.00103012
-0.00103967
-0.00104884
-0.00105766
-0.00106613
-0.00107428
-0.00108214
-0.00108972
-0.00109705
-0.00110416
-0.00111108
-0.00111783
-0.00112445
-0.00113096
-0.00113739
-0.00114378
-0.00115015
-0.00115656
-0.00116303
-0.0011696
-0.00117632
-0.00118323
-0.00119038
-0.00119784
-0.0012055
-0.00121371
-0.00122201
-0.000278007
-0.000300373
-0.000322872
-0.000345825
-0.000369032
-0.000392292
-0.000415532
-0.000438753
-0.000461971
-0.000485186
-0.000508375
-0.000531501
-0.000554526
-0.000577422
-0.000600163
-0.000622724
-0.00064508
-0.000667202
-0.000689062
-0.000710631
-0.00073188
-0.000752782
-0.00077331
-0.000793439
-0.000813145
-0.000832403
-0.000851193
-0.000869491
-0.000887281
-0.000904546
-0.000921271
-0.000937441
-0.000953045
-0.000968078
-0.000982536
-0.00099642
-0.00100973
-0.00102247
-0.00103464
-0.00104626
-0.00105734
-0.00106792
-0.00107802
-0.00108772
-0.00109703
-0.00110598
-0.00111459
-0.0011229
-0.00113092
-0.00113869
-0.00114624
-0.00115359
-0.00116078
-0.00116784
-0.00117481
-0.0011817
-0.00118856
-0.00119542
-0.00120232
-0.00120929
-0.00121639
-0.00122364
-0.00123109
-0.00123883
-0.00124688
-0.00125532
-0.00126408
-0.0012738
-0.00128321
-0.000297516
-0.000321039
-0.000344696
-0.000368825
-0.000393216
-0.000417657
-0.000442067
-0.000466448
-0.000490817
-0.000515173
-0.000539491
-0.000563732
-0.000587857
-0.000611833
-0.000635634
-0.000659232
-0.0006826
-0.000705709
-0.000728526
-0.000751022
-0.000773165
-0.000794925
-0.000816276
-0.000837188
-0.000857637
-0.000877597
-0.000897044
-0.000915957
-0.000934316
-0.000952105
-0.000969307
-0.000985909
-0.0010019
-0.00101728
-0.00103204
-0.00104619
-0.00105972
-0.00107265
-0.00108498
-0.00109674
-0.00110794
-0.00111861
-0.00112881
-0.00113859
-0.00114798
-0.00115701
-0.00116571
-0.00117412
-0.00118227
-0.00119018
-0.00119791
-0.00120547
-0.00121292
-0.00122027
-0.00122756
-0.00123483
-0.00124211
-0.00124945
-0.00125687
-0.00126442
-0.00127214
-0.00128007
-0.0012883
-0.00129688
-0.00130585
-0.00131531
-0.00132524
-0.00133619
-0.00134706
-0.000319322
-0.000344077
-0.000368966
-0.000394347
-0.000419997
-0.000445693
-0.000471348
-0.000496962
-0.000522553
-0.00054812
-0.000573635
-0.000599059
-0.000624348
-0.000649467
-0.000674387
-0.000699079
-0.000723514
-0.000747659
-0.00077148
-0.000794945
-0.00081802
-0.000840674
-0.000862876
-0.000884596
-0.000905808
-0.000926483
-0.000946597
-0.000966127
-0.000985054
-0.00100336
-0.00102102
-0.00103803
-0.00105439
-0.00107008
-0.0010851
-0.00109947
-0.00111318
-0.00112624
-0.00113867
-0.0011505
-0.00116174
-0.00117245
-0.00118267
-0.00119246
-0.00120186
-0.00121091
-0.00121964
-0.00122809
-0.0012363
-0.00124432
-0.00125218
-0.00125993
-0.00126759
-0.00127521
-0.00128281
-0.00129045
-0.00129815
-0.00130595
-0.0013139
-0.00132202
-0.00133037
-0.00133902
-0.00134803
-0.00135745
-0.00136737
-0.00137793
-0.00138915
-0.0014014
-0.0014141
-0.000343771
-0.000369838
-0.00039604
-0.000422755
-0.000449747
-0.00047678
-0.000503762
-0.000530689
-0.00055758
-0.000584434
-0.000611223
-0.000637903
-0.000664428
-0.00069076
-0.000716866
-0.000742717
-0.000768278
-0.000793517
-0.000818396
-0.000842879
-0.000866931
-0.000890517
-0.000913605
-0.000936162
-0.000958158
-0.000979565
-0.00100036
-0.00102051
-0.00103999
-0.0010588
-0.0010769
-0.0010943
-0.00111098
-0.00112693
-0.00114217
-0.00115669
-0.00117051
-0.00118363
-0.00119609
-0.0012079
-0.0012191
-0.00122975
-0.0012399
-0.00124962
-0.00125894
-0.00126791
-0.00127658
-0.00128499
-0.00129321
-0.00130126
-0.00130921
-0.00131709
-0.00132493
-0.00133279
-0.00134068
-0.00134867
-0.00135677
-0.00136504
-0.0013735
-0.0013822
-0.00139121
-0.00140056
-0.00141034
-0.00142061
-0.0014315
-0.00144316
-0.00145564
-0.00146949
-0.00148415
-0.000371248
-0.000398714
-0.000426315
-0.000454452
-0.000482874
-0.000511332
-0.000539726
-0.00056805
-0.000596324
-0.000624548
-0.00065269
-0.000680705
-0.000708543
-0.000736161
-0.000763525
-0.000790601
-0.000817354
-0.000843746
-0.000869737
-0.00089529
-0.000920363
-0.000944921
-0.000968928
-0.000992348
-0.00101515
-0.0010373
-0.00105877
-0.00107954
-0.00109957
-0.00111886
-0.00113738
-0.00115512
-0.00117207
-0.00118824
-0.00120362
-0.00121823
-0.00123206
-0.00124516
-0.00125753
-0.00126923
-0.00128028
-0.00129076
-0.00130073
-0.00131025
-0.00131938
-0.00132817
-0.00133668
-0.00134498
-0.00135311
-0.00136114
-0.00136911
-0.00137707
-0.00138506
-0.00139312
-0.00140129
-0.0014096
-0.00141808
-0.00142679
-0.00143577
-0.00144505
-0.00145469
-0.00146475
-0.00147529
-0.0014864
-0.0014982
-0.00151088
-0.00152453
-0.0015398
-0.00155614
-0.000402249
-0.00043121
-0.000460308
-0.000489963
-0.000519915
-0.000549896
-0.000579798
-0.000609616
-0.000639368
-0.000669053
-0.000698641
-0.00072808
-0.000757318
-0.000786309
-0.000815013
-0.000843394
-0.000871414
-0.000899032
-0.000926204
-0.000952889
-0.000979042
-0.00100462
-0.00102959
-0.00105391
-0.00107755
-0.00110046
-0.00112262
-0.001144
-0.00116457
-0.00118431
-0.00120321
-0.00122124
-0.00123841
-0.00125472
-0.00127016
-0.00128475
-0.0012985
-0.00131145
-0.00132362
-0.00133506
-0.00134582
-0.00135598
-0.00136561
-0.00137478
-0.00138357
-0.00139203
-0.00140024
-0.00140829
-0.00141623
-0.00142413
-0.00143204
-0.00144002
-0.00144811
-0.00145634
-0.00146474
-0.00147334
-0.00148219
-0.00149134
-0.00150081
-0.00151064
-0.00152092
-0.00153167
-0.00154294
-0.00155482
-0.00156743
-0.00158096
-0.00159549
-0.00161176
-0.00162921
-0.00043726
-0.000467816
-0.000498509
-0.000529783
-0.000561364
-0.000592968
-0.000624478
-0.000655886
-0.000687211
-0.000718452
-0.000749576
-0.00078053
-0.000811256
-0.000841703
-0.000871829
-0.000901593
-0.000930952
-0.000959864
-0.000988279
-0.00101615
-0.00104344
-0.00107008
-0.00109605
-0.0011213
-0.00114579
-0.00116948
-0.00119233
-0.00121432
-0.00123541
-0.00125557
-0.0012748
-0.00129307
-0.00131038
-0.00132673
-0.00134213
-0.00135658
-0.00137011
-0.00138276
-0.00139456
-0.00140557
-0.00141587
-0.00142553
-0.00143465
-0.0014433
-0.00145156
-0.00145954
-0.00146731
-0.00147498
-0.00148261
-0.00149029
-0.00149807
-0.00150602
-0.00151416
-0.00152253
-0.00153114
-0.00154004
-0.00154927
-0.00155882
-0.00156874
-0.00157912
-0.00159001
-0.00160139
-0.0016133
-0.00162585
-0.00163912
-0.00165333
-0.00166849
-0.00168533
-0.00170299
-0.000477066
-0.000509336
-0.000541746
-0.000574762
-0.000608096
-0.000641447
-0.00067469
-0.000707811
-0.00074083
-0.000773747
-0.000806528
-0.000839115
-0.000871446
-0.000903464
-0.000935123
-0.000966377
-0.00099718
-0.00102748
-0.00105724
-0.00108638
-0.00111488
-0.00114266
-0.00116969
-0.00119591
-0.00122129
-0.00124577
-0.00126933
-0.00129191
-0.0013135
-0.00133405
-0.00135356
-0.001372
-0.00138937
-0.00140566
-0.00142089
-0.00143506
-0.00144821
-0.00146038
-0.00147161
-0.00148198
-0.00149157
-0.00150048
-0.00150881
-0.00151666
-0.00152414
-0.00153137
-0.00153846
-0.00154552
-0.00155266
-0.00155996
-0.00156749
-0.0015753
-0.00158342
-0.00159187
-0.00160069
-0.00160989
-0.00161943
-0.00162935
-0.00163972
-0.00165061
-0.00166199
-0.00167389
-0.00168637
-0.00169953
-0.00171346
-0.00172839
-0.00174436
-0.00176212
-0.00178068
-0.000522124
-0.00055621
-0.000590432
-0.000625289
-0.000660479
-0.000695679
-0.000730753
-0.000765684
-0.000800493
-0.000835181
-0.000869712
-0.000904023
-0.000938048
-0.000971724
-0.001005
-0.00103782
-0.00107014
-0.00110191
-0.00113307
-0.00116355
-0.00119331
-0.00122228
-0.00125041
-0.00127765
-0.00130393
-0.00132922
-0.00135347
-0.00137663
-0.00139866
-0.00141954
-0.00143924
-0.00145774
-0.00147503
-0.0014911
-0.00150597
-0.00151965
-0.00153219
-0.00154362
-0.00155402
-0.00156346
-0.00157206
-0.00157994
-0.00158721
-0.001594
-0.00160047
-0.00160674
-0.00161297
-0.00161929
-0.00162583
-0.0016327
-0.00163996
-0.00164763
-0.00165576
-0.00166436
-0.00167341
-0.00168285
-0.0016927
-0.00170301
-0.00171381
-0.00172509
-0.00173691
-0.00174937
-0.00176256
-0.00177659
-0.00179155
-0.00180773
-0.00182516
-0.00184482
-0.00186553
-0.000574089
-0.000610171
-0.000646403
-0.000683294
-0.00072053
-0.000757772
-0.000794871
-0.000831805
-0.000868595
-0.000905241
-0.000941707
-0.000977926
-0.00101383
-0.00104934
-0.0010844
-0.00111896
-0.00115297
-0.00118635
-0.00121905
-0.001251
-0.00128215
-0.00131241
-0.00134174
-0.00137008
-0.00139735
-0.00142352
-0.00144851
-0.00147228
-0.00149478
-0.00151598
-0.00153584
-0.00155434
-0.00157145
-0.00158719
-0.00160154
-0.00161455
-0.00162624
-0.00163665
-0.00164586
-0.00165397
-0.00166109
-0.00166737
-0.00167296
-0.00167806
-0.00168286
-0.00168756
-0.00169235
-0.00169742
-0.00170293
-0.00170902
-0.00171578
-0.00172321
-0.00173131
-0.00174003
-0.00174929
-0.00175904
-0.0017693
-0.00178007
-0.00179133
-0.00180316
-0.00181575
-0.00182926
-0.00184377
-0.00185934
-0.00187599
-0.00189389
-0.00191278
-0.00193371
-0.00195449
-0.000632103
-0.000670214
-0.000708455
-0.0007474
-0.000786717
-0.000826042
-0.000865208
-0.00090419
-0.000943008
-0.000981664
-0.00102012
-0.0010583
-0.00109613
-0.00113354
-0.00117045
-0.0012068
-0.00124254
-0.0012776
-0.0013119
-0.00134537
-0.00137794
-0.00140952
-0.00144005
-0.00146947
-0.00149769
-0.00152467
-0.00155033
-0.00157461
-0.00159747
-0.00161885
-0.00163872
-0.00165702
-0.00167375
-0.0016889
-0.00170247
-0.00171449
-0.00172501
-0.00173411
-0.00174186
-0.00174839
-0.00175383
-0.00175831
-0.00176202
-0.00176516
-0.001768
-0.00177083
-0.00177396
-0.00177763
-0.00178201
-0.00178728
-0.00179357
-0.0018009
-0.00180921
-0.00181835
-0.00182821
-0.00183873
-0.00184985
-0.00186151
-0.00187377
-0.00188683
-0.00190094
-0.0019162
-0.00193253
-0.00194975
-0.00196757
-0.00198567
-0.00200319
-0.00202017
-0.00203521
-0.000702595
-0.000743092
-0.000783785
-0.000825189
-0.000866966
-0.000908743
-0.000950342
-0.000991728
-0.00103292
-0.00107393
-0.00111472
-0.00115521
-0.0011953
-0.00123492
-0.00127399
-0.00131244
-0.00135021
-0.00138723
-0.00142342
-0.00145869
-0.00149296
-0.00152614
-0.00155815
-0.0015889
-0.0016183
-0.00164629
-0.00167278
-0.00169771
-0.00172099
-0.00174258
-0.00176241
-0.00178045
-0.00179664
-0.00181097
-0.00182341
-0.00183398
-0.00184272
-0.00184971
-0.00185506
-0.00185894
-0.00186153
-0.00186303
-0.00186367
-0.00186365
-0.00186325
-0.00186285
-0.00186298
-0.00186412
-0.00186652
-0.00187031
-0.00187573
-0.00188286
-0.00189151
-0.00190145
-0.00191243
-0.00192418
-0.00193652
-0.00194943
-0.00196302
-0.00197756
-0.00199317
-0.00200959
-0.00202615
-0.00204207
-0.00205666
-0.00206932
-0.0020787
-0.00208391
-0.00208557
-0.0007739
-0.000816709
-0.000859577
-0.00090325
-0.000947371
-0.000991507
-0.00103545
-0.00107915
-0.00112263
-0.00116591
-0.00120895
-0.00125166
-0.00129396
-0.00133575
-0.00137694
-0.00141745
-0.0014572
-0.00149611
-0.00153409
-0.00157107
-0.00160694
-0.00164161
-0.001675
-0.00170698
-0.00173749
-0.00176641
-0.00179367
-0.00181916
-0.0018428
-0.00186452
-0.00188426
-0.00190197
-0.00191761
-0.00193113
-0.0019425
-0.0019517
-0.00195874
-0.0019637
-0.00196668
-0.00196785
-0.00196745
-0.0019658
-0.00196323
-0.00196006
-0.00195658
-0.00195313
-0.00195036
-0.00194909
-0.00194988
-0.00195296
-0.00195849
-0.00196657
-0.00197703
-0.00198931
-0.00200262
-0.00201623
-0.00202966
-0.0020428
-0.00205581
-0.00206899
-0.00208235
-0.00209511
-0.00210575
-0.00211316
-0.00211731
-0.00211902
-0.00211765
-0.00211223
-0.00210419
-0.000878896
-0.000924159
-0.000969896
-0.00101647
-0.00106351
-0.00111061
-0.00115753
-0.00120421
-0.00125066
-0.00129688
-0.00134284
-0.00138843
-0.00143357
-0.00147815
-0.00152209
-0.0015653
-0.00160769
-0.00164914
-0.00168955
-0.00172881
-0.00176682
-0.00180347
-0.00183865
-0.00187225
-0.00190415
-0.00193424
-0.00196241
-0.00198853
-0.00201244
-0.00203397
-0.00205304
-0.00206963
-0.0020837
-0.00209518
-0.00210403
-0.00211022
-0.00211379
-0.00211478
-0.00211328
-0.00210949
-0.00210363
-0.00209604
-0.00208718
-0.00207761
-0.00206781
-0.0020583
-0.00204983
-0.00204339
-0.00203997
-0.00204028
-0.0020448
-0.00205362
-0.00206627
-0.0020814
-0.00209681
-0.00211031
-0.00212053
-0.00212715
-0.00213091
-0.0021332
-0.00213538
-0.00213769
-0.00213895
-0.00213818
-0.00213546
-0.00213227
-0.00212899
-0.00212529
-0.00212131
-0.000955983
-0.00100444
-0.00105257
-0.00110171
-0.0011514
-0.00120108
-0.00125053
-0.00129973
-0.00134871
-0.00139749
-0.00144599
-0.00149413
-0.00154177
-0.00158881
-0.00163517
-0.00168076
-0.00172549
-0.00176925
-0.00181193
-0.00185339
-0.0018935
-0.00193214
-0.00196918
-0.0020045
-0.00203799
-0.00206954
-0.00209912
-0.0021267
-0.00215216
-0.00217523
-0.0021956
-0.00221306
-0.00222744
-0.00223866
-0.00224669
-0.0022515
-0.00225304
-0.00225131
-0.00224637
-0.00223839
-0.0022276
-0.0022143
-0.00219896
-0.00218224
-0.00216495
-0.00214807
-0.00213268
-0.00211999
-0.00211118
-0.00210725
-0.00210882
-0.00211588
-0.00212749
-0.0021414
-0.00215394
-0.00216205
-0.00216445
-0.00216147
-0.00215483
-0.00214743
-0.00214222
-0.00214037
-0.00214079
-0.00214137
-0.00214061
-0.00213868
-0.00213683
-0.00213604
-0.00213719
-0.00112187
-0.00117279
-0.0012253
-0.0012788
-0.00133258
-0.00138622
-0.00143956
-0.0014926
-0.00154539
-0.00159793
-0.00165015
-0.00170193
-0.00175315
-0.00180368
-0.00185342
-0.00190227
-0.00195011
-0.00199683
-0.00204229
-0.00208634
-0.00212882
-0.00216955
-0.00220836
-0.00224506
-0.00227944
-0.00231125
-0.0023402
-0.00236602
-0.00238863
-0.00240818
-0.0024247
-0.00243806
-0.00244806
-0.00245443
-0.00245696
-0.00245543
-0.00244966
-0.00243956
-0.0024251
-0.00240639
-0.00238365
-0.00235724
-0.00232774
-0.00229595
-0.00226294
-0.00223001
-0.00219864
-0.00217046
-0.00214712
-0.00213008
-0.00212041
-0.00211854
-0.00212396
-0.00213485
-0.00214753
-0.00215824
-0.00216477
-0.00216641
-0.00216357
-0.0021577
-0.00215108
-0.00214612
-0.00214326
-0.00214105
-0.00213899
-0.0021376
-0.00213752
-0.00213906
-0.00214267
0.000231006
0.000233442
0.000236297
0.000239509
0.000242889
0.000246488
0.000250436
0.000254659
0.000259108
0.000263638
0.00026841
0.000273467
0.000278549
0.000284091
0.000288823
0.000293703
0.000297945
0.000302494
0.00030642
0.000310027
0.000313363
0.000315372
0.000316785
0.000316683
0.000315754
0.000314119
0.00031086
0.000306155
0.000300335
0.000293578
0.000284307
0.000273816
0.000262121
0.000249613
0.000235184
0.000219839
0.000203974
0.000187295
0.00016963
0.000151813
0.000133863
0.000115699
9.75617e-05
7.98706e-05
6.18503e-05
4.48341e-05
2.76669e-05
1.13284e-05
-4.80364e-06
-2.03483e-05
-3.50812e-05
-4.91938e-05
-6.25973e-05
-7.52473e-05
-8.72585e-05
-9.91238e-05
-0.000110282
-0.000120986
-0.000131204
0.000236262
0.000238927
0.000241982
0.000245285
0.000248871
0.000252727
0.000256864
0.00026126
0.00026591
0.000270806
0.000275898
0.000281175
0.000286585
0.000292054
0.000297541
0.000302644
0.000307689
0.000312425
0.000316825
0.000320581
0.000323825
0.000326416
0.000327945
0.000328335
0.000327665
0.000325923
0.000322922
0.000318287
0.000312523
0.000305365
0.000296066
0.000285473
0.000273572
0.000260187
0.00024544
0.000229556
0.000212938
0.000195637
0.000177506
0.000158897
0.000140265
0.000121436
0.000102595
8.37879e-05
6.5271e-05
4.72128e-05
2.94514e-05
1.23053e-05
-4.34674e-06
-2.04238e-05
-3.57729e-05
-5.0432e-05
-6.4475e-05
-7.78721e-05
-9.07657e-05
-0.000103047
-0.000114752
-0.000125819
-0.000136311
0.000242224
0.000245086
0.000248281
0.000251756
0.000255537
0.000259617
0.000263986
0.000268637
0.000273566
0.000278749
0.000284137
0.000289677
0.000295355
0.00030112
0.000306885
0.00031256
0.000318085
0.000323257
0.000327957
0.000332048
0.000335471
0.000338323
0.000340175
0.000340922
0.000340498
0.000338789
0.000335816
0.00033132
0.000325474
0.000318087
0.00030875
0.00029792
0.000285516
0.000271569
0.000256307
0.000239907
0.000222559
0.000204491
0.000185733
0.000166456
0.000146907
0.00012716
0.000107369
8.77706e-05
6.84547e-05
4.95497e-05
3.1065e-05
1.31291e-05
-4.22967e-06
-2.09989e-05
-3.7092e-05
-5.25161e-05
-6.72846e-05
-8.14205e-05
-9.4879e-05
-0.000107665
-0.000119835
-0.000131359
-0.000142328
0.000248049
0.000251077
0.00025447
0.000258163
0.000262185
0.000266529
0.000271187
0.000276145
0.000281388
0.000286893
0.000292628
0.000298547
0.000304615
0.00031077
0.000316913
0.00032301
0.000328906
0.000334487
0.000339585
0.000344115
0.000347957
0.000351058
0.00035319
0.000354204
0.000353989
0.000352411
0.000349496
0.000345052
0.000339128
0.000331545
0.000322024
0.00031083
0.000297942
0.000283498
0.000267669
0.000250659
0.000232593
0.000213689
0.000194097
0.000173978
0.000153481
0.000132808
0.000112142
9.16964e-05
7.15248e-05
5.17492e-05
3.24386e-05
1.36767e-05
-4.47902e-06
-2.20099e-05
-3.88691e-05
-5.50304e-05
-7.04799e-05
-8.52253e-05
-9.92647e-05
-0.000112611
-0.0001253
-0.000137322
-0.000148766
0.000253617
0.000256823
0.00026042
0.00026434
0.000268616
0.000273236
0.000278196
0.000283483
0.000289077
0.000294956
0.000301085
0.000307425
0.000313924
0.000320514
0.000327112
0.000333641
0.000339973
0.000345997
0.000351563
0.000356556
0.000360839
0.000364279
0.000366708
0.000367981
0.000367977
0.000366576
0.000363763
0.000359337
0.000353332
0.00034556
0.000335767
0.000324169
0.000310809
0.000295841
0.000279404
0.000261706
0.000242884
0.000223132
0.000202636
0.000181588
0.000160165
0.000138583
0.000117021
9.5647e-05
7.45588e-05
5.38709e-05
3.36776e-05
1.40558e-05
-4.9332e-06
-2.32526e-05
-4.08659e-05
-5.77446e-05
-7.38767e-05
-8.92655e-05
-0.000103924
-0.000117862
-0.00013111
-0.000143661
-0.00015561
0.000259125
0.000262525
0.000266333
0.000270483
0.000275011
0.000279908
0.000285171
0.000290789
0.000296745
0.000303012
0.000309555
0.000316329
0.000323278
0.000330336
0.00033742
0.000344436
0.000351267
0.000357787
0.000363851
0.000369317
0.000374042
0.000377876
0.000380652
0.000382227
0.000382468
0.000381264
0.000378566
0.000374164
0.000368079
0.000360118
0.000350038
0.00033803
0.000324176
0.000308635
0.000291543
0.000273102
0.000253473
0.000232855
0.000211446
0.000189459
0.000167096
0.000144563
0.000122034
9.96695e-05
7.76037e-05
5.59556e-05
3.48276e-05
1.43001e-05
-5.56273e-06
-2.47143e-05
-4.31204e-05
-6.07583e-05
-7.76197e-05
-9.37069e-05