/*--------------------------------*- C++ -*----------------------------------*\
| =========                 |                                                 |
| \\      /  F ield         | OpenFOAM: The Open Source CFD Toolbox           |
|  \\    /   O peration     | Version:  2312                                  |
|   \\  /    A nd           | Website:  www.openfoam.com                      |
|    \\/     M anipulation  |                                                 |
\*---------------------------------------------------------------------------*/
FoamFile
{
    version     2.0;
    format      ascii;
    arch        "LSB;label=32;scalar=64";
    class       surfaceScalarField;
    location    "1600";
    object      phi;
}
// * * * * * * * * * * * * * * * * * * * * * * * * * * * * * * * * * * * * * //

dimensions      [0 3 -1 0 0 0 0];

oriented        oriented;

internalField   nonuniform List<scalar> 
116611
(
0.001255
0.000437525
-0.00123898
-0.000453539
0.00127092
0.000434659
-0.000450579
0.00128648
0.000431441
-0.000446999
0.00130173
0.000427845
-0.000443096
0.00131691
0.000423978
-0.000439165
0.00133208
0.000419731
-0.000434897
0.00134702
0.000415256
-0.000430197
0.00136218
0.000410522
-0.000425679
0.0013768
0.000405429
-0.000420055
0.00139128
0.00039998
-0.000414456
0.00140549
0.000394144
-0.000408352
0.00141956
0.000387959
-0.000402028
0.00143328
0.000381391
-0.000395112
0.00144656
0.000374392
-0.000387671
0.0014593
0.00036694
-0.00037968
0.00147168
0.000359119
-0.000371505
0.00148375
0.000350743
-0.000362815
0.00149562
0.000342139
-0.000354001
0.00150695
0.00033287
-0.000344204
0.00151783
0.000323306
-0.000334189
0.00152836
0.000313133
-0.000323664
0.00153825
0.000302544
-0.000312427
0.00154748
0.000291358
-0.00030059
0.00155621
0.000279748
-0.000288479
0.00156436
0.000267616
-0.000275767
0.00157232
0.000255002
-0.000262958
0.00157965
0.000241727
-0.00024906
0.0015862
0.000227994
-0.000234544
0.00159282
0.000213826
-0.000220451
0.00159842
0.000199149
-0.000204744
0.00160379
0.000184069
-0.000189442
0.00160892
0.000168231
-0.000173355
0.00161324
0.000151808
-0.000156129
0.00161706
0.000134978
-0.000138805
0.00162032
0.000117482
-0.000120741
0.00162282
9.95795e-05
-0.000102077
0.00162534
8.11727e-05
-8.36931e-05
0.00162688
6.21964e-05
-6.37345e-05
0.00162802
4.26635e-05
-4.38008e-05
0.00162836
2.24208e-05
-2.27599e-05
0.00162808
1.8239e-06
-1.54428e-06
0.00162785
-1.92987e-05
1.95226e-05
0.00162674
-4.10981e-05
4.22087e-05
0.00162501
-6.33793e-05
6.51106e-05
0.0016225
-8.62059e-05
8.87207e-05
0.00161974
-0.00010935
0.000112103
0.00161644
-0.000133086
0.000136388
0.00161194
-0.000157382
0.000161879
0.00160714
-0.000181844
0.000186652
0.00160177
-0.000206642
0.000212009
0.00159561
-0.000231865
0.000238022
0.00158912
-0.000257268
0.000263756
0.00158213
-0.000283039
0.000290033
0.00157426
-0.000309235
0.000317105
0.00156494
-0.000335648
0.000344968
0.0015558
-0.00036176
0.000370901
0.00154517
-0.000388298
0.000398923
0.00153424
-0.000414651
0.000425583
0.00152266
-0.000440876
0.00045246
0.00151056
-0.000466662
0.000478759
0.00149773
-0.000492436
0.000505263
0.00148467
-0.000518209
0.000531274
0.00147098
-0.000543284
0.000556979
0.00145662
-0.000568034
0.000582392
0.00144149
-0.000592187
0.000607315
0.00142649
-0.000615392
0.00063039
0.00141172
-0.000638009
0.000652781
0.00139699
-0.000660092
0.00067482
-0.000681951
0.00138085
0.000698098
0.00124106
0.000421495
-0.00122503
0.00125696
0.000418758
0.00127267
0.000415733
0.00128811
0.000412404
0.00130337
0.000408718
0.00131836
0.000404743
0.00133319
0.000400429
0.00134792
0.000395793
0.00136249
0.000390862
0.00137687
0.000385594
0.00139104
0.00037998
0.00140499
0.000374008
0.00141872
0.000367661
0.00143217
0.000360936
0.00144524
0.000353869
0.001458
0.000346365
0.00147029
0.000338454
0.00148232
0.000330101
0.00149388
0.000321315
0.00150513
0.00031206
0.00151592
0.000302343
0.00152629
0.000292169
0.00153614
0.000281511
0.0015455
0.000270382
0.00155436
0.000258759
0.00156277
0.000246592
0.00157056
0.000233935
0.00157779
0.000220761
0.00158456
0.000207065
0.00159078
0.000192929
0.0015966
0.00017824
0.00160189
0.000162943
0.00160657
0.000147134
0.00161074
0.0001308
0.0016143
0.000113926
0.00161735
9.65269e-05
0.00161992
7.86027e-05
0.00162194
6.01771e-05
0.00162343
4.11747e-05
0.00162425
2.16031e-05
0.00162456
1.51436e-06
0.00162434
-1.90832e-05
0.00162345
-4.02039e-05
0.00162193
-6.18637e-05
0.00161975
-8.40194e-05
0.00161701
-0.000106617
0.00161359
-0.000129667
0.0016094
-0.000153189
0.00160463
-0.000177071
0.00159925
-0.000201265
0.0015932
-0.00022581
0.00158657
-0.000250648
0.00157931
-0.000275772
0.00157126
-0.000301183
0.00156242
-0.000326815
0.00155314
-0.000352475
0.00154306
-0.000378216
0.00153236
-0.000403959
0.00152105
-0.00042956
0.00150935
-0.000454968
0.00149715
-0.000480234
0.00148429
-0.000505347
0.00147102
-0.000530015
0.00145726
-0.000554279
0.00144314
-0.00057806
0.00142892
-0.000601172
0.0014145
-0.000623588
0.00139987
-0.000645461
-0.000666818
0.00138473
0.00122805
0.00040582
-0.00121238
0.00124371
0.000403098
0.00125932
0.000400124
0.00127482
0.000396907
0.00129012
0.000393416
0.00130522
0.000389638
0.0013201
0.00038555
0.00133476
0.000381133
0.00134923
0.000376391
0.00136351
0.000371318
0.00137758
0.000365911
0.00139143
0.00036016
0.00140503
0.000354055
0.00141838
0.000347586
0.0014315
0.000340755
0.00144431
0.000333548
0.00145681
0.000325954
0.00146897
0.00031795
0.00148076
0.000309525
0.00149216
0.00030066
0.00150315
0.000291349
0.00151374
0.000281583
0.00152389
0.000271355
0.00153362
0.000260658
0.00154289
0.000249489
0.00155165
0.00023783
0.00155991
0.000225678
0.00156764
0.000213024
0.00157484
0.000199867
0.00158156
0.000186208
0.00158778
0.000172025
0.00159342
0.000157304
0.0015985
0.000142051
0.00160303
0.00012627
0.00160699
0.000109962
0.0016104
9.31246e-05
0.00161324
7.57627e-05
0.00161554
5.78739e-05
0.00161727
3.94415e-05
0.00161841
2.04699e-05
0.00161895
9.70795e-07
0.00161891
-1.90383e-05
0.00161826
-3.95589e-05
0.00161699
-6.05926e-05
0.00161508
-8.21079e-05
0.00161254
-0.000104078
0.00160936
-0.000126488
0.0016055
-0.000149334
0.001601
-0.000172565
0.00159587
-0.000196132
0.00159009
-0.000220032
0.00158368
-0.000244241
0.00157664
-0.000268726
0.00156892
-0.000293465
0.00156051
-0.000318408
0.00155149
-0.000343455
0.00154183
-0.00036856
0.00153156
-0.000393688
0.00152075
-0.000418744
0.00150945
-0.00044367
0.00149766
-0.000468441
0.00148534
-0.000493028
0.00147262
-0.000517297
0.00145952
-0.00054118
0.00144608
-0.000564617
0.00143241
-0.000587506
0.00141859
-0.000609762
0.00140458
-0.000631459
-0.00065258
0.00139035
0.00121643
0.000390439
-0.00120105
0.00123177
0.000387754
0.00124709
0.000384808
0.00126236
0.000381633
0.00127755
0.000378226
0.00129262
0.00037457
0.00130752
0.000370646
0.00132222
0.000366432
0.00133671
0.000361908
0.00135096
0.000357062
0.00136499
0.000351886
0.00137878
0.000346372
0.00139232
0.000340514
0.0014056
0.000334302
0.00141862
0.000327729
0.00143138
0.000320791
0.00144386
0.000313478
0.00145603
0.000305779
0.00146787
0.000297681
0.00147936
0.000289171
0.00149047
0.000280235
0.0015012
0.000270862
0.00151151
0.000261043
0.0015214
0.00025077
0.00153085
0.000240037
0.00153984
0.000228834
0.00154837
0.000217151
0.00155641
0.000204983
0.00156395
0.000192324
0.001571
0.000179166
0.00157752
0.000165502
0.0015835
0.000151322
0.00158893
0.000136619
0.00159381
0.000121395
0.00159812
0.000105649
0.00160187
8.93794e-05
0.00160504
7.25849e-05
0.00160765
5.52649e-05
0.00160968
3.74167e-05
0.00161111
1.90407e-05
0.00161194
1.40824e-07
0.00161217
-1.9272e-05
0.0016118
-3.91867e-05
0.0016108
-5.95938e-05
0.00160917
-8.04744e-05
0.0016069
-0.000101809
0.00160399
-0.00012358
0.00160043
-0.00014577
0.00159621
-0.000168349
0.00159136
-0.000191282
0.00158588
-0.000214549
0.00157976
-0.000238126
0.00157302
-0.000261982
0.00156563
-0.000286081
0.00155761
-0.000310381
0.00154897
-0.000334819
0.00153975
-0.000359339
0.00152996
-0.000383897
0.00151964
-0.000408428
0.00150885
-0.000432875
0.0014976
-0.000457193
0.00148591
-0.000481336
0.00147383
-0.000505219
0.00146141
-0.000528765
0.0014487
-0.000551908
0.00143578
-0.000574579
0.00142269
-0.000596673
0.0014094
-0.000618172
-0.000638989
0.00139581
0.00120571
0.000375028
-0.0011903
0.00122097
0.000372496
0.00123611
0.000369669
0.00125115
0.000366587
0.00126612
0.000363262
0.00128099
0.000359696
0.00129575
0.000355882
0.00131038
0.000351808
0.00132483
0.000347457
0.00133908
0.000342814
0.0013531
0.000337862
0.00136689
0.000332588
0.00138042
0.000326983
0.00139368
0.000321036
0.00140667
0.000314738
0.00141939
0.000308081
0.00143181
0.000301056
0.00144393
0.000293655
0.00145574
0.00028587
0.00146722
0.000277688
0.00147836
0.0002691
0.00148912
0.000260096
0.0014995
0.000250665
0.00150947
0.000240798
0.00151903
0.000230484
0.00152815
0.000219716
0.00153681
0.000208483
0.00154502
0.000196779
0.00155275
0.000184596
0.00155998
0.000171928
0.00156672
0.000158767
0.00157294
0.000145104
0.00157862
0.000130934
0.00158376
0.000116253
0.00158836
0.000101059
0.00159239
8.53487e-05
0.00159585
6.91214e-05
0.00159874
5.23757e-05
0.00160105
3.51101e-05
0.00160276
1.73249e-05
0.00160388
-9.78346e-07
0.0016044
-1.97891e-05
0.0016043
-3.90927e-05
0.00160359
-5.88782e-05
0.00160224
-7.91308e-05
0.00160027
-9.98344e-05
0.00159766
-0.000120971
0.00159441
-0.000142524
0.00159053
-0.000164467
0.00158603
-0.000186775
0.0015809
-0.000209422
0.00157515
-0.000232382
0.0015688
-0.000255626
0.00156183
-0.000279117
0.00155427
-0.000302817
0.00154613
-0.000326676
0.00153743
-0.000350643
0.0015282
-0.00037467
0.00151848
-0.000398706
0.0015083
-0.000422695
0.0014977
-0.000446587
0.00148669
-0.00047033
0.00147533
-0.000493854
0.00146365
-0.00051709
0.00145171
-0.000539968
0.00143956
-0.000562424
0.00142724
-0.000584358
0.00141481
-0.000605739
-0.00062666
0.00140248
0.0011952
0.000359388
-0.00117956
0.00121062
0.000357069
0.00122585
0.000354445
0.00124089
0.000351547
0.00125576
0.000348384
0.0012705
0.000344961
0.0012851
0.000341279
0.00129957
0.00033734
0.00131389
0.000333136
0.00132805
0.000328659
0.00134201
0.000323897
0.00135576
0.000318838
0.00136928
0.000313467
0.00138254
0.000307774
0.00139553
0.000301746
0.00140824
0.000295372
0.00142065
0.000288644
0.00143276
0.00028155
0.00144455
0.000274081
0.00145601
0.000266229
0.00146712
0.000257984
0.00147788
0.000249336
0.00148827
0.000240277
0.00149827
0.000230797
0.00150787
0.000220887
0.00151705
0.000210537
0.00152579
0.000199739
0.00153409
0.000188483
0.00154192
0.000176762
0.00154928
0.000164569
0.00155615
0.000151896
0.00156252
0.000138734
0.00156837
0.000125079
0.0015737
0.000110926
0.00157849
9.62692e-05
0.00158273
8.1107e-05
0.00158642
6.54363e-05
0.00158954
4.92552e-05
0.00159209
3.25623e-05
0.00159405
1.53578e-05
0.00159543
-2.35756e-06
0.00159622
-2.05735e-05
0.0015964
-3.92752e-05
0.00159597
-5.84522e-05
0.00159493
-7.80916e-05
0.00159328
-9.81791e-05
0.00159101
-0.000118699
0.00158812
-0.000139634
0.00158461
-0.000160963
0.0015805
-0.000182662
0.00157578
-0.000204707
0.00157047
-0.000227071
0.00156457
-0.000249726
0.0015581
-0.000272639
0.00155105
-0.000295771
0.00154345
-0.000319081
0.00153533
-0.000342523
0.00152672
-0.000366051
0.00151763
-0.000389617
0.0015081
-0.00041317
0.00149817
-0.000436658
0.00148787
-0.000460027
0.00147723
-0.000483215
0.0014663
-0.000506158
0.00145511
-0.000528784
0.00144372
-0.00055103
0.00143216
-0.000572803
0.00142049
-0.000594068
-0.000614969
0.0014088
0.00118471
0.000343582
-0.0011689
0.00120034
0.000341441
0.00121576
0.000339018
0.00123098
0.000336332
0.00124598
0.000333384
0.00126077
0.000330168
0.00127537
0.000326684
0.00128977
0.000322931
0.001304
0.000318907
0.00131805
0.000314609
0.00133192
0.000310034
0.00134558
0.000305173
0.00135903
0.000300017
0.00137225
0.000294557
0.00138521
0.00028878
0.00139791
0.000282676
0.00141032
0.000276233
0.00142243
0.000269441
0.00143422
0.000262289
0.00144568
0.000254767
0.0014568
0.000246865
0.00146757
0.000238573
0.00147796
0.000229882
0.00148797
0.000220784
0.00149759
0.000211268
0.0015068
0.000201327
0.00151559
0.000190951
0.00152394
0.000180131
0.00153184
0.00016886
0.00153928
0.000157129
0.00154625
0.000144931
0.00155273
0.000132258
0.0015587
0.000119103
0.00156417
0.000105461
0.00156911
9.13276e-05
0.00157352
7.6698e-05
0.00157738
6.15689e-05
0.0015807
4.5938e-05
0.00158346
2.98034e-05
0.00158565
1.31649e-05
0.00158727
-3.97768e-06
0.00158831
-2.16138e-05
0.00158877
-3.97296e-05
0.00158863
-5.83154e-05
0.0015879
-7.73601e-05
0.00158657
-9.68508e-05
0.00158465
-0.000116774
0.00158212
-0.000137112
0.00157901
-0.000157848
0.00157531
-0.000178959
0.00157102
-0.000200423
0.00156617
-0.000222215
0.00156075
-0.000244306
0.00155477
-0.000266665
0.00154826
-0.000289259
0.00154123
-0.000312047
0.00153369
-0.00033499
0.00152569
-0.000358044
0.00151723
-0.000381163
0.00150836
-0.000404299
0.00149911
-0.000427401
0.0014895
-0.000450417
0.00147957
-0.000473287
0.00146936
-0.000495949
0.00145891
-0.000518335
0.00144826
-0.000540377
0.00143744
-0.000561985
0.00142647
-0.000583101
-0.000603764
0.00141527
0.00117455
0.000327757
-0.00115873
0.00119025
0.00032574
0.00120581
0.000323466
0.00122118
0.000320956
0.00123636
0.000318207
0.00125132
0.000315207
0.00126606
0.000311948
0.00128057
0.000308422
0.00129485
0.000304623
0.00130891
0.000300548
0.00132275
0.000296193
0.00133637
0.000291554
0.00134976
0.000286624
0.00136292
0.000281397
0.00137584
0.000275865
0.00138849
0.00027002
0.00140088
0.000263851
0.00141297
0.000257349
0.00142476
0.000250502
0.00143622
0.000243301
0.00144735
0.000235735
0.00145813
0.000227793
0.00146855
0.000219467
0.00147858
0.000210746
0.00148823
0.000201621
0.00149748
0.000192083
0.0015063
0.000182122
0.00151471
0.000171731
0.00152267
0.0001609
0.00153017
0.000149622
0.00153722
0.000137888
0.00154378
0.000125691
0.00154986
0.000113024
0.00155544
9.98811e-05
0.00156051
8.62562e-05
0.00156507
7.21447e-05
0.00156909
5.75426e-05
0.00157258
4.24468e-05
0.00157553
2.68548e-05
0.00157793
1.07659e-05
0.00157977
-5.82057e-06
0.00158105
-2.28942e-05
0.00158177
-4.04419e-05
0.00158191
-5.84556e-05
0.00158147
-7.69253e-05
0.00158046
-9.584e-05
0.00157887
-0.000115187
0.00157671
-0.000134952
0.00157398
-0.000155117
0.00157069
-0.000175663
0.00156683
-0.000196569
0.00156243
-0.000217811
0.00155749
-0.000239362
0.00155201
-0.000261194
0.00154603
-0.000283274
0.00153955
-0.000305566
0.00153259
-0.000328033
0.00152518
-0.000350634
0.00151734
-0.000373326
0.00150911
-0.000396063
0.0015005
-0.000418796
0.00149156
-0.000441475
0.00148231
-0.000464042
0.0014728
-0.000486437
0.00146306
-0.000508593
0.00145313
-0.000530442
0.00144304
-0.000551899
0.00143279
-0.000572853
-0.000593605
0.00142263
0.00116509
0.000312
-0.00114934
0.00118075
0.000310079
0.0011963
0.000307916
0.00121172
0.00030554
0.00122698
0.000302946
0.00124206
0.000300126
0.00125694
0.000297068
0.0012716
0.000293762
0.00128603
0.000290197
0.00130021
0.000286364
0.00131415
0.000282257
0.00132783
0.000277869
0.00134127
0.000273193
0.00135444
0.000268223
0.00136735
0.000262954
0.00137999
0.000257378
0.00139236
0.000251487
0.00140443
0.000245274
0.00141621
0.000238728
0.00142766
0.000231841
0.0014388
0.000224603
0.00144959
0.000217004
0.00146002
0.000209034
0.00147008
0.000200683
0.00147976
0.000191941
0.00148905
0.000182799
0.00149792
0.000173248
0.00150637
0.000163278
0.00151439
0.000152881
0.00152197
0.000142047
0.00152909
0.000130769
0.00153574
0.000119039
0.00154191
0.000106849
0.0015476
9.41935e-05
0.00155279
8.10651e-05
0.00155748
6.74589e-05
0.00156165
5.33701e-05
0.0015653
3.87949e-05
0.00156843
2.37303e-05
0.00157102
8.17471e-06
0.00157307
-7.87206e-06
0.00157457
-2.44001e-05
0.00157553
-4.13978e-05
0.00157593
-5.88583e-05
0.00157578
-7.67732e-05
0.00157507
-9.51327e-05
0.00157381
-0.000113925
0.001572
-0.000133138
0.00156964
-0.000152755
0.00156673
-0.000172759
0.00156329
-0.00019313
0.00155933
-0.000213844
0.00155484
-0.000234879
0.00154985
-0.000256205
0.00154437
-0.000277794
0.00153842
-0.000299612
0.00153201
-0.000321624
0.00152517
-0.000343792
0.00151792
-0.000366076
0.00151029
-0.000388431
0.0015023
-0.000410811
0.001494
-0.000433168
0.0014854
-0.000455445
0.00147655
-0.000477587
0.00146749
-0.00049953
0.00145825
-0.000521205
0.0014489
-0.000542547
0.00143939
-0.000563346
-0.000584006
0.00142979
0.0011565
0.00029631
-0.00114081
0.00117209
0.000294488
0.00118758
0.00029243
0.00120295
0.000290169
0.00121819
0.000287705
0.00123329
0.000285032
0.00124821
0.000282141
0.00126295
0.000279021
0.00127749
0.000275664
0.00129179
0.000272057
0.00130586
0.000268192
0.00131967
0.000264058
0.00133321
0.000259647
0.00134649
0.000254952
0.00135948
0.000249963
0.00137218
0.000244674
0.00138459
0.000239078
0.0013967
0.000233166
0.0014085
0.000226931
0.00141997
0.000220363
0.00143112
0.000213455
0.00144193
0.000206198
0.00145238
0.000198581
0.00146247
0.000190595
0.00147218
0.000182231
0.0014815
0.00017348
0.00149042
0.000164331
0.00149892
0.000154775
0.001507
0.000144803
0.00151464
0.000134406
0.00152183
0.000123576
0.00152857
0.000112304
0.00153483
0.000100582
0.00154062
8.84034e-05
0.00154593
7.57606e-05
0.00155074
6.26479e-05
0.00155505
4.906e-05
0.00155885
3.49923e-05
0.00156214
2.04409e-05
0.00156491
5.40352e-06
0.00156716
-1.01187e-05
0.00156888
-2.61171e-05
0.00157006
-4.25824e-05
0.00157071
-5.95081e-05
0.00157082
-7.68874e-05
0.0015704
-9.47116e-05
0.00156945
-0.000112971
0.00156796
-0.000131653
0.00156595
-0.000150743
0.00156342
-0.000170226
0.00156037
-0.000190083
0.00155682
-0.000210292
0.00155277
-0.00023083
0.00154824
-0.000251673
0.00154324
-0.000272792
0.00153778
-0.000294157
0.00153189
-0.000315734
0.00152559
-0.000337487
0.00151889
-0.000359379
0.00151183
-0.000381369
0.00150443
-0.000403411
0.00149672
-0.00042546
0.00148874
-0.000447463
0.00148051
-0.000469366
0.00147209
-0.000491107
0.00146352
-0.000512631
0.00145485
-0.000533876
0.00144618
-0.000554683
-0.000575566
0.00143774
0.00114879
0.000280662
-0.00113314
0.00116433
0.000278945
0.00117976
0.000276999
0.00119507
0.000274856
0.00121026
0.00027252
0.0012253
0.000269985
0.0012402
0.000267244
0.00125493
0.000264289
0.00126948
0.000261113
0.00128383
0.000257706
0.00129797
0.000254058
0.00131187
0.000250159
0.00132552
0.000245999
0.0013389
0.00024157
0.001352
0.000236861
0.00136481
0.000231863
0.00137732
0.000226568
0.00138952
0.000220968
0.0014014
0.000215053
0.00141295
0.000208815
0.00142416
0.000202246
0.00143502
0.000195336
0.00144552
0.000188077
0.00145566
0.000180459
0.00146541
0.000172474
0.00147478
0.000164111
0.00148375
0.000155362
0.00149231
0.000146217
0.00150045
0.000136666
0.00150815
0.000126701
0.00151542
0.000116311
0.00152223
0.00010549
0.00152859
9.42276e-05
0.00153447
8.25167e-05
0.00153988
7.03498e-05
0.00154481
5.77203e-05
0.00154925
4.4622e-05
0.00155319
3.10497e-05
0.00155663
1.69988e-05
0.00155957
2.46596e-06
0.001562
-1.25461e-05
0.00156391
-2.80304e-05
0.00156531
-4.39797e-05
0.00156619
-6.0388e-05
0.00156655
-7.72497e-05
0.0015664
-9.45576e-05
0.00156573
-0.000112303
0.00156455
-0.000130474
0.00156286
-0.000149058
0.00156068
-0.00016804
0.001558
-0.000187403
0.00155483
-0.000207126
0.00155119
-0.00022719
0.00154709
-0.000247569
0.00154253
-0.000268238
0.00153754
-0.000289167
0.00153214
-0.000310327
0.00152633
-0.000331684
0.00152016
-0.000353201
0.00151363
-0.000374841
0.00150678
-0.000396562
0.00149964
-0.000418319
0.00149224
-0.000440063
0.00148462
-0.000461743
0.00147681
-0.000483299
0.00146886
-0.000504681
0.0014608
-0.000525817
0.00145275
-0.000546639
-0.000567844
0.00144503
0.00114191
0.000265034
-0.00112628
0.00115743
0.000263426
0.00117283
0.000261596
0.00118811
0.000259578
0.00120326
0.000257375
0.00121826
0.000254982
0.00123311
0.000252392
0.0012478
0.000249599
0.00126232
0.000246596
0.00127665
0.000243375
0.00129078
0.000239926
0.00130469
0.000236243
0.00131838
0.000232315
0.00133182
0.000228133
0.00134499
0.000223687
0.00135788
0.000218969
0.00137048
0.000213967
0.00138278
0.000208673
0.00139476
0.000203077
0.0014064
0.00019717
0.0014177
0.000190942
0.00142866
0.000184385
0.00143924
0.000177488
0.00144946
0.000170243
0.0014593
0.00016264
0.00146874
0.000154669
0.00147778
0.000146321
0.00148641
0.000137586
0.00149462
0.000128455
0.0015024
0.000118919
0.00150975
0.000108968
0.00151664
9.85927e-05
0.00152309
8.77847e-05
0.00152907
7.65355e-05
0.00153458
6.48371e-05
0.00153962
5.26823e-05
0.00154417
4.00643e-05
0.00154825
2.69771e-05
0.00155183
1.34155e-05
0.00155492
-6.24948e-07
0.00155752
-1.51398e-05
0.00155961
-3.01238e-05
0.0015612
-4.55717e-05
0.00156229
-6.14784e-05
0.00156288
-7.78394e-05
0.00156297
-9.46483e-05
0.00156257
-0.000111897
0.00156167
-0.000129576
0.00156028
-0.000147673
0.00155842
-0.000166173
0.00155608
-0.000185062
0.00155327
-0.00020432
0.00155001
-0.000223927
0.0015463
-0.000243861
0.00154216
-0.000264098
0.0015376
-0.000284611
0.00153265
-0.000305372
0.00152731
-0.00032635
0.00152162
-0.00034751
0.0015156
-0.000368819
0.00150927
-0.000390236
0.00150268
-0.000411721
0.00149584
-0.000433228
0.00148881
-0.000454707
0.00148161
-0.0004761
0.00147428
-0.000497354
0.00146683
-0.000518365
0.00145923
-0.000539036
-0.000559843
0.00145122
0.00113586
0.000249409
-0.00112023
0.00115137
0.000247913
0.00116676
0.000246201
0.00118203
0.000244311
0.00119716
0.000242245
0.00121215
0.000239999
0.00122697
0.000237565
0.00124163
0.000234938
0.00125612
0.00023211
0.00127042
0.000229075
0.00128452
0.000225824
0.00129842
0.00022235
0.00131209
0.000218644
0.00132552
0.000214697
0.00133871
0.000210502
0.00135163
0.000206047
0.00136427
0.000201325
0.00137662
0.000196325
0.00138866
0.000191037
0.00140038
0.000185452
0.00141176
0.00017956
0.0014228
0.00017335
0.00143347
0.000166813
0.00144378
0.000159938
0.0014537
0.000152717
0.00146323
0.000145138
0.00147236
0.000137192
0.00148107
0.000128869
0.00148937
0.000120158
0.00149724
0.000111051
0.00150467
0.000101536
0.00151166
9.16057e-05
0.00151819
8.12492e-05
0.00152427
7.04579e-05
0.00152989
5.92233e-05
0.00153503
4.75375e-05
0.0015397
3.53929e-05
0.0015439
2.27828e-05
0.00154761
9.70145e-06
0.00155084
-3.85651e-06
0.00155359
-1.78849e-05
0.00155584
-3.23805e-05
0.00155761
-4.734e-05
0.00155889
-6.27595e-05
0.00155969
-7.8635e-05
0.00156
-9.49613e-05
0.00155984
-0.000111731
0.00155919
-0.000128935
0.00155808
-0.000146563
0.00155651
-0.000164601
0.00155448
-0.000183033
0.00155201
-0.000201844
0.0015491
-0.000221015
0.00154576
-0.000240523
0.00154201
-0.000260348
0.00153786
-0.000280464
0.00153333
-0.000300845
0.00152845
-0.000321462
0.00152322
-0.000342286
0.00151769
-0.000363283
0.00151187
-0.000384419
0.0015058
-0.000405654
0.00149952
-0.000426948
0.00149307
-0.000448254
0.00148648
-0.000469516
0.00147982
-0.000490686
0.00147311
-0.00051166
0.00146639
-0.000532317
-0.000553169
0.00145972
0.00113061
0.00023377
-0.00111497
0.00114613
0.000232389
0.00116154
0.000230798
0.00117681
0.000229037
0.00119194
0.00022711
0.00120693
0.000225013
0.00122176
0.000222738
0.00123641
0.000220281
0.00125089
0.000217633
0.00126518
0.000214787
0.00127927
0.000211737
0.00129314
0.000208474
0.0013068
0.00020499
0.00132022
0.000201278
0.00133339
0.000197328
0.0013463
0.000193133
0.00135895
0.000188682
0.0013713
0.000183967
0.00138336
0.000178978
0.00139511
0.000173706
0.00140653
0.000168139
0.00141761
0.000162269
0.00142834
0.000156084
0.0014387
0.000149574
0.00144869
0.000142729
0.00145829
0.000135538
0.00146749
0.00012799
0.00147629
0.000120075
0.00148466
0.000111783
0.00149261
0.000103102
0.00150013
9.40225e-05
0.0015072
8.45339e-05
0.00151382
7.46263e-05
0.00151999
6.42898e-05
0.0015257
5.35153e-05
0.00153094
4.22939e-05
0.00153572
3.06172e-05
0.00154002
1.84777e-05
0.00154385
5.86874e-06
0.00154721
-7.21421e-06
0.00155009
-2.07655e-05
0.0015525
-3.47837e-05
0.00155442
-4.92668e-05
0.00155588
-6.42124e-05
0.00155686
-7.96171e-05
0.00155737
-9.54765e-05
0.00155743
-0.000111784
0.00155702
-0.000128531
0.00155617
-0.000145708
0.00155487
-0.000163302
0.00155313
-0.000181298
0.00155097
-0.000199682
0.00154839
-0.000218436
0.00154541
-0.000237539
0.00154203
-0.000256972
0.00153828
-0.000276711
0.00153417
-0.000296733
0.00152972
-0.000317012
0.00152495
-0.000337519
0.00151989
-0.000358227
0.00151458
-0.000379103
0.00150904
-0.000400113
0.00150331
-0.000421218
0.00149743
-0.000442379
0.00149146
-0.000463544
0.00148545
-0.000484677
0.00147945
-0.00050566
0.00147374
-0.0005266
-0.000547087
0.00146765
0.00112617
0.000218103
-0.0011105
0.00114172
0.000216839
0.00115714
0.000215372
0.00117244
0.000213743
0.00118759
0.000211957
0.00120259
0.00021001
0.00121744
0.000207896
0.00123211
0.000205609
0.0012466
0.000203143
0.0012609
0.000200489
0.00127499
0.000197642
0.00128887
0.000194594
0.00130253
0.000191335
0.00131594
0.00018786
0.00132911
0.000184158
0.00134202
0.000180222
0.00135466
0.000176044
0.00136702
0.000171613
0.00137908
0.00016692
0.00139083
0.000161956
0.00140225
0.000156711
0.00141335
0.000151174
0.0014241
0.000145336
0.00143449
0.000139185
0.0014445
0.00013271
0.00145414
0.000125902
0.00146338
0.000118747
0.00147222
0.000111237
0.00148065
0.000103358
0.00148865
9.50997e-05
0.00149622
8.64512e-05
0.00150335
7.74012e-05
0.00151004
6.79388e-05
0.00151628
5.80534e-05
0.00152206
4.77346e-05
0.00152738
3.69727e-05
0.00153224
2.57583e-05
0.00153663
1.4083e-05
0.00154056
1.93894e-06
0.00154402
-1.06763e-05
0.00154702
-2.37602e-05
0.00154955
-3.73122e-05
0.00155161
-5.13317e-05
0.00155322
-6.58173e-05
0.00155437
-8.07666e-05
0.00155507
-9.61757e-05
0.00155532
-0.000112039
0.00155514
-0.000128348
0.00155452
-0.000145093
0.00155348
-0.000162263
0.00155203
-0.000179845
0.00155017
-0.000197823
0.00154792
-0.000216181
0.00154528
-0.0002349
0.00154227
-0.000253962
0.0015389
-0.000273346
0.0015352
-0.00029303
0.00153118
-0.000312991
0.00152686
-0.000333203
0.00152228
-0.000353642
0.00151745
-0.000374279
0.00151243
-0.000395085
0.00150724
-0.000416027
0.00150193
-0.000437072
0.00149656
-0.000458177
0.00149118
-0.0004793
0.0014859
-0.000500373
0.00148056
-0.000521269
-0.000542612
0.00147609
0.00112255
0.000202401
-0.00110685
0.00113814
0.000201255
0.0011536
0.000199912
0.00116892
0.000198416
0.00118411
0.000196772
0.00119914
0.000194977
0.00121401
0.000193025
0.00122871
0.00019091
0.00124323
0.000188626
0.00125755
0.000186167
0.00127167
0.000183524
0.00128557
0.000180691
0.00129924
0.00017766
0.00131268
0.000174423
0.00132587
0.000170972
0.00133879
0.000167299
0.00135144
0.000163394
0.0013638
0.000159249
0.00137587
0.000154854
0.00138762
0.0001502
0.00139906
0.000145277
0.00141016
0.000140074
0.00142091
0.000134581
0.00143131
0.000128788
0.00144134
0.000122682
0.00145099
0.000116254
0.00146024
0.00010949
0.0014691
0.00010238
0.00147754
9.49124e-05
0.00148557
8.70741e-05
0.00149317
7.88534e-05
0.00150033
7.02386e-05
0.00150705
6.12177e-05
0.00151333
5.17791e-05
0.00151915
4.19115e-05
0.00152452
3.16039e-05
0.00152943
2.0846e-05
0.00153388
9.62807e-06
0.00153788
-2.05881e-06
0.00154142
-1.42149e-05
0.0015445
-2.68418e-05
0.00154713
-3.99397e-05
0.00154931
-5.35091e-05
0.00155104
-6.75498e-05
0.00155233
-8.20601e-05
0.00155319
-9.70368e-05
0.00155363
-0.000112474
0.00155365
-0.000128366
0.00155326
-0.000144701
0.00155246
-0.00016147
0.00155128
-0.000178658
0.00154971
-0.000196253
0.00154776
-0.000214238
0.00154546
-0.000232596
0.0015428
-0.000251309
0.00153982
-0.000270358
0.00153651
-0.000289724
0.00153291
-0.000309385
0.00152902
-0.000329321
0.00152489
-0.000349509
0.00152054
-0.000369926
0.001516
-0.000390549
0.00151132
-0.000411352
0.00150656
-0.00043231
0.00150177
-0.000453388
0.00149702
-0.000474544
0.00149238
-0.000495737
0.00148779
-0.000516677
-0.000538408
0.00148359
0.00111982
0.000186669
-0.00110409
0.00113544
0.000185637
0.00115093
0.000184415
0.0011663
0.000183051
0.00118152
0.000181549
0.00119659
0.000179906
0.0012115
0.000178116
0.00122624
0.000176174
0.00124079
0.000174074
0.00125515
0.000171808
0.0012693
0.000169371
0.00128324
0.000166755
0.00129695
0.000163952
0.00131042
0.000160955
0.00132363
0.000157756
0.00133658
0.000154347
0.00134926
0.000150718
0.00136165
0.000146861
0.00137373
0.000142767
0.00138551
0.000138425
0.00139696
0.000133826
0.00140807
0.00012896
0.00141884
0.000123815
0.00142925
0.000118381
0.00143928
0.000112646
0.00144894
0.000106599
0.0014582
0.000100228
0.00146706
9.35202e-05
0.00147551
8.64634e-05
0.00148354
7.90448e-05
0.00149114
7.12517e-05
0.00149831
6.30712e-05
0.00150503
5.44904e-05
0.00151132
4.54966e-05
0.00151715
3.60772e-05
0.00152254
2.62202e-05
0.00152747
1.59137e-05
0.00153195
5.14693e-06
0.00153598
-6.08918e-06
0.00153956
-1.77955e-05
0.00154269
-2.99758e-05
0.00154539
-4.26321e-05
0.00154764
-5.5766e-05
0.00154947
-6.93781e-05
0.00155088
-8.34677e-05
0.00155187
-9.80317e-05
0.00155246
-0.000113065
0.00155266
-0.000128561
0.00155247
-0.000144509
0.0015519
-0.000160899
0.00155096
-0.000177718
0.00154966
-0.000194953
0.00154801
-0.000212587
0.00154602
-0.000230605
0.0015437
-0.000248991
0.00154106
-0.000267725
0.00153813
-0.000286791
0.00153492
-0.000306171
0.00153144
-0.000325846
0.00152773
-0.0003458
0.00152382
-0.000366014
0.00151974
-0.000386471
0.00151554
-0.000407149
0.00151126
-0.000428026
0.00150694
-0.00044907
0.00150264
-0.000470241
0.0014984
-0.000491506
0.00149436
-0.000512633
-0.00053465
0.0014906
0.00111808
0.000170917
-0.00110232
0.00113372
0.000169994
0.00114924
0.00016889
0.00116464
0.000167654
0.0011799
0.00016629
0.00119501
0.000164796
0.00120996
0.000163167
0.00122474
0.000161396
0.00123933
0.000159479
0.00125373
0.000157407
0.00126793
0.000155175
0.00128191
0.000152776
0.00129566
0.000150203
0.00130917
0.000147447
0.00132242
0.000144501
0.00133541
0.000141357
0.00134812
0.000138006
0.00136055
0.000134439
0.00137267
0.000130647
0.00138447
0.00012662
0.00139595
0.000122349
0.00140709
0.000117822
0.00141787
0.000113028
0.0014283
0.000107957
0.00143835
0.000102597
0.00144801
9.69354e-05
0.00145728
9.09599e-05
0.00146614
8.46576e-05
0.00147459
7.80154e-05
0.00148261
7.10198e-05
0.00149021
6.3657e-05
0.00149737
5.59131e-05
0.00150408
4.77741e-05
0.00151035
3.9226e-05