/*--------------------------------*- C++ -*----------------------------------*\
| =========                 |                                                 |
| \\      /  F ield         | OpenFOAM: The Open Source CFD Toolbox           |
|  \\    /   O peration     | Version:  2312                                  |
|   \\  /    A nd           | Website:  www.openfoam.com                      |
|    \\/     M anipulation  |                                                 |
\*---------------------------------------------------------------------------*/
FoamFile
{
    version     2.0;
    format      ascii;
    arch        "LSB;label=32;scalar=64";
    class       volVectorField;
    location    "1600";
    object      U;
}
// * * * * * * * * * * * * * * * * * * * * * * * * * * * * * * * * * * * * * //

dimensions      [0 1 -1 0 0 0 0];

internalField   nonuniform List<vector> 
76025
(
(0.041257 -0.00938587 0)
(0.0415233 -0.00934445 -1.01975e-21)
(0.0417855 -0.00929805 0)
(0.0420407 -0.00924394 0)
(0.0423041 -0.00918823 2.25127e-21)
(0.0425683 -0.00910257 4.74021e-21)
(0.0428438 -0.00902913 -8.43654e-21)
(0.0431255 -0.00893323 3.65341e-21)
(0.0434045 -0.00883711 1.30637e-21)
(0.0436811 -0.00873032 -1.34711e-21)
(0.0439581 -0.00861413 4.58597e-23)
(0.0442369 -0.00848477 -4.26727e-21)
(0.0445189 -0.00834828 5.67544e-21)
(0.0447972 -0.00819885 0)
(0.0450628 -0.008028 -1.55243e-21)
(0.0453294 -0.00786401 0)
(0.0455873 -0.00767199 0)
(0.0458501 -0.00748067 0)
(0.0461087 -0.00726791 -1.66078e-21)
(0.0463603 -0.00705643 1.76724e-21)
(0.0466063 -0.00682325 1.81032e-21)
(0.046847 -0.00658259 5.47354e-21)
(0.0470759 -0.00633137 -3.68704e-21)
(0.0472934 -0.006066 -5.80391e-21)
(0.0475015 -0.00579368 -8.12055e-23)
(0.0477092 -0.00551416 -2.12017e-21)
(0.0479095 -0.00520494 6.17083e-21)
(0.0481046 -0.00489991 -6.21769e-21)
(0.0482942 -0.00457131 2.1085e-21)
(0.0484764 -0.00422055 -2.15621e-21)
(0.0486484 -0.00388622 -2.21167e-21)
(0.0488219 -0.00353464 4.62484e-21)
(0.0489826 -0.00315522 -7.0147e-21)
(0.0491387 -0.002782 -1.22082e-21)
(0.0492832 -0.00238564 6.16523e-21)
(0.0494177 -0.0019904 2.26574e-23)
(0.0495467 -0.00156972 -1.26517e-21)
(0.049668 -0.00113294 6.69094e-22)
(0.0497798 -0.000703825 2.18459e-23)
(0.0498787 -0.000253627 -1.03303e-21)
(0.0499635 0.000198322 7.01984e-22)
(0.0500441 0.000671263 -3.51149e-22)
(0.0501217 0.00116878 7.0046e-22)
(0.0501861 0.00166882 -1.4024e-21)
(0.0502318 0.00218667 -1.4292e-21)
(0.0502659 0.00271351 2.7643e-21)
(0.0502947 0.00325984 2.84618e-21)
(0.0503059 0.00381323 -8.53866e-21)
(0.0502932 0.00438224 5.55819e-21)
(0.0502695 0.00496398 -6.77505e-23)
(0.0502311 0.00556025 -1.40642e-20)
(0.0501753 0.0061743 -5.52441e-21)
(0.0501066 0.0068026 5.6928e-21)
(0.0500171 0.0074535 0)
(0.0498939 0.00810955 -5.49475e-21)
(0.0497412 0.00877583 -5.66548e-21)
(0.0495694 0.00945509 9.77722e-23)
(0.0493607 0.010157 -5.53364e-21)
(0.0491209 0.0108852 5.55686e-21)
(0.0488409 0.011652 -1.63913e-20)
(0.0485668 0.012368 -1.12536e-20)
(0.0482339 0.0131468 -3.94655e-22)
(0.047866 0.0139437 0)
(0.0474618 0.0147516 2.76908e-20)
(0.047013 0.0155719 -1.0657e-20)
(0.0465284 0.0163892 5.52993e-21)
(0.0460121 0.0172455 -1.08849e-20)
(0.0454405 0.0181342 1.13414e-20)
(0.0449376 0.0190192 2.23054e-20)
(0.0412642 -0.00981337 -1.03415e-21)
(0.0415459 -0.00977167 -3.29238e-21)
(0.041827 -0.00972202 4.30182e-21)
(0.0421073 -0.00966531 0)
(0.0423847 -0.00960139 -6.00515e-21)
(0.042666 -0.00952613 -1.98818e-22)
(0.0429436 -0.00944114 4.98181e-21)
(0.0432272 -0.0093459 0)
(0.0435148 -0.00924112 5.10933e-23)
(0.0438041 -0.00912712 1.372e-21)
(0.0440938 -0.00900313 -1.41326e-21)
(0.0443841 -0.00886882 5.67773e-23)
(0.0446745 -0.00872417 0)
(0.0449667 -0.0085686 0)
(0.045258 -0.00839997 -3.31096e-21)
(0.0455419 -0.00822163 8.20024e-21)
(0.0458248 -0.00802937 1.72922e-21)
(0.0461015 -0.00782737 -5.2973e-21)
(0.0463773 -0.00761228 3.51909e-21)
(0.0466466 -0.00738704 -1.79375e-21)
(0.0469135 -0.00714862 1.95044e-21)
(0.0471746 -0.00689885 -3.78766e-21)
(0.047429 -0.00663676 3.96683e-21)
(0.047676 -0.00636183 -6.0572e-21)
(0.0479147 -0.00607468 4.06388e-21)
(0.0481458 -0.00577626 6.30761e-21)
(0.048372 -0.00546501 -4.25597e-21)
(0.0485848 -0.00514264 0)
(0.0487903 -0.00480586 0)
(0.04899 -0.00445564 -2.34075e-21)
(0.049181 -0.00409544 0)
(0.0493653 -0.00372366 -2.44607e-21)
(0.0495425 -0.00333888 2.47482e-21)
(0.0497075 -0.00294313 -3.76964e-21)
(0.0498642 -0.00253396 4.5352e-23)
(0.0500104 -0.00211272 -1.28975e-21)
(0.0501489 -0.0016755 0)
(0.0502795 -0.0012279 -2.75345e-21)
(0.0503997 -0.000770203 2.11717e-21)
(0.0505085 -0.000300164 -1.78456e-21)
(0.0506057 0.00018399 1.10031e-21)
(0.050693 0.000684846 -1.48425e-23)
(0.0507685 0.00119423 3.96039e-22)
(0.0508298 0.00171203 -3.68593e-22)
(0.0508761 0.00224163 2.99255e-21)
(0.0509084 0.00278603 -1.50219e-21)
(0.0509272 0.00334263 -1.53243e-21)
(0.0509289 0.00390708 2.89896e-21)
(0.0509112 0.00448851 8.83699e-21)
(0.0508773 0.00508717 -3.56841e-23)
(0.0508265 0.00569996 8.7441e-21)
(0.0507566 0.0063292 -2.93636e-21)
(0.0506676 0.00697268 -8.69683e-21)
(0.0505572 0.00762643 5.80893e-21)
(0.0504218 0.00828911 0)
(0.0502586 0.00897511 1.74591e-20)
(0.0500726 0.00967429 3.79707e-23)
(0.0498572 0.0103906 -5.77853e-21)
(0.0496117 0.011123 -5.89275e-21)
(0.0493394 0.0118702 0)
(0.04904 0.0126363 5.56319e-21)
(0.0487061 0.0134198 1.71233e-20)
(0.048337 0.0142153 0)
(0.0479341 0.0150244 -1.13686e-20)
(0.0474952 0.0158487 6.24397e-21)
(0.0470134 0.0166961 -1.16075e-20)
(0.0464963 0.0175688 5.79932e-21)
(0.0459369 0.0184379 -1.14441e-20)
(0.0453775 0.0193446 -1.14546e-20)
(0.0412921 -0.0102664 5.44007e-21)
(0.0415785 -0.010221 -3.22634e-21)
(0.0418683 -0.0101677 1.18457e-21)
(0.0421642 -0.0101077 -4.93266e-21)
(0.0424615 -0.0100389 6.17631e-21)
(0.0427594 -0.00996117 5.28989e-21)
(0.043056 -0.00987278 -6.62578e-21)
(0.0433523 -0.00977454 0)
(0.0436497 -0.00966584 5.50051e-23)
(0.0439487 -0.00954657 0)
(0.044249 -0.0094164 1.54901e-21)
(0.04455 -0.00927539 -1.53417e-21)
(0.0448509 -0.00912348 -8.17349e-21)
(0.0451514 -0.00896042 6.50949e-21)
(0.0454525 -0.00878591 -1.66568e-21)
(0.0457524 -0.00859899 -5.24218e-21)
(0.0460508 -0.00840042 1.77018e-21)
(0.0463459 -0.00818944 1.79756e-21)
(0.0466373 -0.007967 5.71475e-21)
(0.0469244 -0.00773221 -3.79642e-21)
(0.0472067 -0.00748542 -2.00627e-21)
(0.0474836 -0.00722621 4.07466e-21)
(0.047755 -0.00695446 -1.97453e-21)
(0.0480207 -0.00666959 -2.14825e-21)
(0.0482806 -0.0063716 0)
(0.0485328 -0.00606079 2.24554e-21)
(0.0487769 -0.00573816 2.2531e-21)
(0.0490121 -0.00540271 -2.21515e-21)
(0.0492383 -0.00505397 0)
(0.049456 -0.00469255 4.80889e-21)
(0.0496659 -0.00431802 -2.5009e-21)
(0.0498664 -0.00393167 -9.01078e-23)
(0.0500565 -0.00353386 0)
(0.0502359 -0.00312325 1.28693e-21)
(0.0504051 -0.00270036 -4.00932e-21)
(0.0505637 -0.00226472 2.71465e-21)
(0.0507116 -0.00181644 0)
(0.0508489 -0.0013563 2.13812e-21)
(0.0509756 -0.000884131 -2.19283e-21)
(0.0510906 -0.000400302 -3.66878e-22)
(0.0511934 9.58718e-05 0)
(0.0512836 0.000603953 -7.71294e-22)
(0.0513608 0.00112299 -3.86911e-22)
(0.0514243 0.00165405 3.728e-22)
(0.0514733 0.00219824 -2.27508e-21)
(0.0515071 0.00275626 -1.56041e-21)
(0.0515253 0.00332734 3.01399e-21)
(0.0515268 0.00391145 -3.07185e-21)
(0.05151 0.00451085 3.10203e-21)
(0.0514749 0.00512538 -3.03561e-21)
(0.0514215 0.00575381 -2.99465e-21)
(0.0513485 0.00639648 6.18358e-21)
(0.0512551 0.0070527 0)
(0.0511401 0.00772193 6.16535e-21)
(0.0510009 0.00840537 8.41475e-23)
(0.0508358 0.00910538 -6.07199e-21)
(0.0506454 0.00981978 -6.0571e-21)
(0.0504277 0.0105496 1.20621e-20)
(0.0501815 0.0112958 -8.14271e-23)
(0.0499062 0.0120602 6.13312e-21)
(0.049602 0.0128407 -1.22677e-20)
(0.049267 0.0136349 -6.22935e-21)
(0.0488977 0.0144455 3.76691e-23)
(0.0484937 0.0152732 -6.01827e-21)
(0.0480538 0.0161186 -5.8091e-21)
(0.0475745 0.0169806 -1.83962e-20)
(0.0470621 0.0178625 0)
(0.0465002 0.0187475 -6.11638e-21)
(0.0459406 0.0196846 6.08412e-21)
(0.0413502 -0.0107481 0)
(0.0416388 -0.0107005 -1.15809e-21)
(0.0419316 -0.0106441 -6.22236e-21)
(0.0422328 -0.0105806 4.98325e-21)
(0.04254 -0.0105082 4.10037e-21)
(0.0428508 -0.0104259 -6.75858e-21)
(0.0431636 -0.0103332 1.38898e-21)
(0.043477 -0.0102303 -1.49154e-21)
(0.0437902 -0.0101169 -1.48046e-21)
(0.0441032 -0.00999279 -6.3292e-21)
(0.0444162 -0.00985748 6.36058e-21)
(0.044729 -0.00971072 6.7011e-21)
(0.0450416 -0.00955235 -1.56581e-21)
(0.0453534 -0.00938219 -6.96615e-21)
(0.0456644 -0.00920002 5.34798e-21)
(0.0459747 -0.0090055 -1.87178e-21)
(0.0462838 -0.00879872 1.9193e-21)
(0.046591 -0.00857942 1.96693e-21)
(0.0468956 -0.00834773 -5.93968e-21)
(0.0471966 -0.00810351 1.93156e-21)
(0.0474931 -0.00784674 2.03213e-21)
(0.0477847 -0.00757718 0)
(0.0480707 -0.00729472 4.46018e-21)
(0.0483509 -0.00699923 -2.20551e-21)
(0.0486247 -0.00669065 -4.57145e-21)
(0.0488915 -0.0063691 -4.71998e-21)
(0.0491507 -0.00603452 9.40501e-21)
(0.049402 -0.00568669 -4.82852e-21)
(0.0496448 -0.00532563 0)
(0.0498787 -0.00495137 -5.03498e-21)
(0.0501033 -0.00456426 -6.58724e-23)
(0.050318 -0.00416484 5.17834e-21)
(0.0505221 -0.00375296 -2.6978e-21)
(0.0507152 -0.00332831 6.85958e-21)
(0.0508971 -0.00289097 -1.34965e-21)
(0.0510677 -0.00244092 0)
(0.0512266 -0.00197824 0)
(0.0513737 -0.00150297 7.56996e-22)
(0.0515087 -0.00101544 7.46667e-22)
(0.0516308 -0.00051589 3.95089e-22)
(0.0517399 -4.18306e-06 -1.26192e-23)
(0.0518354 0.000519947 3.9369e-22)
(0.0519168 0.00105677 0)
(0.0519835 0.0016064 -2.74603e-23)
(0.0520349 0.00216906 0)
(0.0520701 0.00274495 1.54686e-21)
(0.0520887 0.00333407 1.4836e-23)
(0.0520899 0.00393633 -4.81618e-21)
(0.0520726 0.0045521 0)
(0.0520363 0.00518171 -3.18246e-21)
(0.0519807 0.00582502 3.15157e-21)
(0.0519051 0.00648211 -6.21619e-21)
(0.0518085 0.00715295 0)
(0.0516898 0.00783753 -1.89383e-20)
(0.0515474 0.00853609 8.04122e-23)
(0.0513802 0.0092495 6.27266e-21)
(0.0511874 0.00997809 6.26153e-21)
(0.0509683 0.0107222 0)
(0.0507215 0.0114825 0)
(0.0504463 0.0122594 -6.16887e-21)
(0.0501424 0.0130524 1.23388e-20)
(0.0498083 0.0138612 1.23447e-20)
(0.0494416 0.0146868 0)
(0.0490412 0.0155294 -1.28325e-20)
(0.0486066 0.0163893 0)
(0.0481343 0.0172655 1.87665e-20)
(0.0476281 0.0181635 -6.32273e-21)
(0.0470703 0.0190657 -6.39148e-21)
(0.046514 0.0200244 -6.66392e-21)
(0.0414167 -0.011256 0)
(0.0417185 -0.0112079 0)
(0.0420203 -0.0111499 -1.32252e-21)
(0.0423279 -0.011084 5.5011e-21)
(0.0426412 -0.0110084 -6.88899e-21)
(0.0429593 -0.0109222 1.41814e-21)
(0.0432815 -0.010825 0)
(0.0436069 -0.010717 1.51449e-21)
(0.0439343 -0.010598 0)
(0.0442625 -0.0104679 3.34042e-21)
(0.0445908 -0.0103263 1.81904e-22)
(0.0449185 -0.010173 -3.42143e-21)
(0.0452453 -0.0100076 0)
(0.0455709 -0.00983003 3.72867e-21)
(0.0458949 -0.00963992 -1.13149e-20)
(0.0462172 -0.00943716 7.65837e-21)
(0.0465375 -0.00922162 -9.87529e-21)
(0.0468556 -0.00899317 2.01543e-21)
(0.0471711 -0.00875173 -2.12323e-21)
(0.0474833 -0.00849724 2.08954e-21)
(0.0477917 -0.0082296 2.185e-21)
(0.0480955 -0.00794873 -6.6769e-21)
(0.048394 -0.00765457 -4.55866e-21)
(0.0486867 -0.00734709 0)
(0.0489728 -0.00702625 4.80313e-21)
(0.0492519 -0.00669204 2.47997e-21)
(0.0495236 -0.00634442 -7.34492e-21)
(0.0497872 -0.00598336 2.48523e-21)
(0.0500422 -0.00560889 -5.21204e-21)
(0.0502882 -0.00522106 7.81703e-21)
(0.0505247 -0.00482007 -2.74283e-21)
(0.050751 -0.0044061 1.39924e-21)
(0.0509666 -0.00397915 0)
(0.0511711 -0.00353921 -1.4042e-21)
(0.051364 -0.00308632 -1.43301e-21)
(0.051545 -0.00262056 0)
(0.0517136 -0.00214206 1.54751e-21)
(0.0518694 -0.00165094 -2.3222e-21)
(0.0520122 -0.00114746 1.57378e-21)
(0.0521413 -0.000631714 -8.08958e-22)
(0.0522567 -0.000103733 -1.35923e-23)
(0.0523576 0.000436651 -6.33073e-22)
(0.0524435 0.000989609 2.06838e-22)
(0.0525138 0.0015551 8.16706e-22)
(0.052568 0.00213327 2.14366e-23)
(0.0526056 0.00272427 4.96474e-21)
(0.052626 0.00332819 0)
(0.0526284 0.00394506 3.25053e-21)
(0.0526123 0.00457515 -4.35961e-23)
(0.0525769 0.00521883 -3.28152e-21)
(0.0525219 0.00587622 0)
(0.0524466 0.00654736 -3.29915e-21)
(0.0523502 0.00723235 3.26925e-21)
(0.0522316 0.00793131 6.44896e-21)
(0.0520899 0.00864453 0)
(0.051924 0.00937257 -1.30034e-20)
(0.0517331 0.0101159 1.30786e-20)
(0.0515163 0.0108748 -1.30727e-20)
(0.0512728 0.0116498 -1.39447e-22)
(0.0510016 0.0124412 0)
(0.0507019 0.0132491 -6.56249e-21)
(0.0503724 0.0140736 6.42545e-21)
(0.0500115 0.0149151 6.82019e-21)
(0.0496177 0.015774 1.28976e-20)
(0.04919 0.0166511 -2.00169e-20)
(0.0487252 0.0175449 1.31989e-20)
(0.0482267 0.0184608 -6.59622e-21)
(0.0476761 0.0193827 6.89009e-21)
(0.0471334 0.0203639 1.97035e-20)
(0.0414638 -0.0117896 5.17308e-21)
(0.0417898 -0.0117412 2.4908e-22)
(0.0421123 -0.0116824 -5.4114e-21)
(0.0424368 -0.0116148 0)
(0.0427635 -0.0115369 1.44682e-21)
(0.0430925 -0.0114474 0)
(0.0434242 -0.0113462 -3.22222e-21)
(0.0437591 -0.0112333 -1.22795e-22)
(0.044097 -0.0111087 5.02622e-21)
(0.0444372 -0.0109722 -1.77279e-21)
(0.0447788 -0.0108237 -1.75114e-21)
(0.0451208 -0.010663 -1.87715e-21)
(0.0454623 -0.0104897 0)
(0.0458028 -0.0103038 0)
(0.0461417 -0.0101049 1.95105e-21)
(0.0464783 -0.00989301 2.0009e-21)
(0.0468124 -0.00966786 -4.23917e-21)
(0.0471435 -0.00942935 4.22742e-21)
(0.0474712 -0.00917739 4.38985e-21)
(0.0477951 -0.00891188 -4.54176e-21)
(0.0481148 -0.00863276 9.08546e-21)
(0.0484297 -0.00833995 1.31234e-23)
(0.0487393 -0.00803342 -4.83585e-21)
(0.049043 -0.00771313 -2.49884e-21)
(0.0493402 -0.00737909 -5.05058e-21)
(0.0496302 -0.00703128 5.05387e-21)
(0.0499126 -0.00666976 5.25817e-21)
(0.0501868 -0.00629456 -5.26681e-21)
(0.0504522 -0.00590573 0)
(0.0507082 -0.00550335 0)
(0.0509544 -0.00508753 7.05097e-21)
(0.0511902 -0.0046584 9.87569e-23)
(0.051415 -0.00421608 -2.91146e-21)
(0.0516285 -0.00376066 -3.01272e-21)
(0.0518299 -0.00329223 3.02963e-21)
(0.052019 -0.00281093 0)
(0.0521953 -0.0023169 -1.55903e-21)
(0.0523583 -0.00181031 -2.45294e-21)
(0.0525077 -0.00129131 1.64188e-21)
(0.0526429 -0.000760015 -1.50179e-23)
(0.0527639 -0.000216577 -1.35037e-22)
(0.0528699 0.000339131 6.41053e-22)
(0.0529602 0.000907372 4.40321e-22)
(0.0530345 0.0014882 8.68059e-22)
(0.0530924 0.00208177 -4.28882e-21)
(0.0531334 0.0026882 2.05617e-23)
(0.0531568 0.00330759 0)
(0.0531621 0.00394006 -3.4974e-21)
(0.0531488 0.00458578 1.03141e-20)
(0.0531161 0.00524497 -6.89993e-21)
(0.0530636 0.00591775 -3.43615e-21)
(0.0529908 0.00660422 -7.331e-23)
(0.0528968 0.00730453 -3.38046e-21)
(0.0527808 0.00801888 -5.19452e-23)
(0.0526421 0.00874757 6.78779e-21)
(0.0524797 0.00949103 -6.92754e-21)
(0.0522928 0.0102497 -6.82929e-21)
(0.0520806 0.0110239 1.36046e-20)
(0.0518422 0.0118142 -8.98723e-23)
(0.0515767 0.0126209 6.82928e-21)
(0.051283 0.0134444 -6.78391e-21)
(0.0509599 0.0142849 6.69829e-21)
(0.050606 0.0151429 -1.34145e-20)
(0.0502195 0.0160186 -6.86763e-21)
(0.0497996 0.016913 1.3415e-20)
(0.0493425 0.0178245 -7.17298e-21)
(0.0488521 0.0187587 -2.10177e-20)
(0.0483088 0.019699 -6.70611e-21)
(0.0477764 0.020698 0)
(0.041487 -0.0123512 0)
(0.0418382 -0.0123022 1.42809e-21)
(0.0421862 -0.0122424 -6.25458e-23)
(0.0425353 -0.0121734 0)
(0.0428846 -0.0120934 0)
(0.0432335 -0.0120011 1.65457e-21)
(0.0435824 -0.0118963 -5.12089e-21)
(0.043932 -0.011779 6.908e-21)
(0.044283 -0.0116491 -3.42159e-21)
(0.0446355 -0.0115066 1.79814e-21)
(0.0449893 -0.0113513 0)
(0.0453439 -0.0111829 1.90347e-21)
(0.0456987 -0.0110014 -2.04044e-21)
(0.046053 -0.0108066 0)
(0.0464061 -0.0105984 0)
(0.0467572 -0.0103766 2.16757e-21)
(0.0471058 -0.0101411 1.19501e-22)
(0.0474512 -0.00989174 -4.46124e-21)
(0.0477928 -0.00962848 -4.588e-21)
(0.04813 -0.00935122 4.67343e-21)
(0.0484625 -0.00905989 2.3711e-21)
(0.0487896 -0.00875444 9.94425e-21)
(0.0491108 -0.00843484 6.00384e-23)
(0.0494258 -0.00810108 -2.67992e-21)
(0.0497338 -0.00775317 5.20706e-21)
(0.0500344 -0.00739115 -2.67941e-21)
(0.0503269 -0.00701508 5.42385e-21)
(0.0506109 -0.00662503 0)
(0.0508858 -0.0062211 0)
(0.051151 -0.00580338 0)
(0.051406 -0.00537202 -1.45192e-21)
(0.0516502 -0.00492716 -2.98033e-21)
(0.0518832 -0.00446894 3.05029e-21)
(0.0521043 -0.0039975 3.1536e-21)
(0.0523132 -0.00351299 -3.17018e-21)
(0.0525093 -0.00301556 0)
(0.0526922 -0.00250536 1.66821e-21)
(0.0528615 -0.00198256 -8.49846e-22)
(0.0530168 -0.00144733 0)
(0.0531576 -0.000899798 8.79507e-22)
(0.0532838 -0.000340158 -1.67729e-22)
(0.0533945 0.000231756 1.12033e-22)
(0.0534894 0.000816256 -4.422e-22)
(0.0535679 0.00141338 0)
(0.0536298 0.00202323 -1.80287e-21)
(0.0536745 0.00264587 1.78378e-21)
(0.0537015 0.00328138 0)
(0.0537104 0.00392982 -7.47287e-23)
(0.0537005 0.00459134 4.39502e-23)
(0.0536713 0.00526607 3.50475e-21)
(0.0536224 0.00595421 0)
(0.0535531 0.00665591 -1.20791e-22)
(0.0534628 0.00737139 -3.49125e-21)
(0.0533509 0.00810094 -1.07268e-20)
(0.0532165 0.00884488 -1.50956e-22)
(0.0530589 0.00960361 6.96308e-21)
(0.0528772 0.0103776 0)
(0.0526707 0.0111673 0)
(0.0524383 0.0119731 7.20218e-21)
(0.0521792 0.0127955 0)
(0.0518923 0.013635 0)
(0.0515762 0.0144918 -1.01245e-22)
(0.0512297 0.0153665 -7.07849e-21)
(0.050851 0.0162594 -1.44082e-20)
(0.0504389 0.0171713 1.43909e-20)
(0.0499897 0.018101 -5.35763e-22)
(0.0495072 0.0190544 6.89654e-21)
(0.0489698 0.0200126 7.19834e-21)
(0.0484445 0.0210367 0)
(0.0414994 -0.0129447 0)
(0.041871 -0.0128945 -1.45126e-21)
(0.0422415 -0.0128331 4.65901e-21)
(0.0426148 -0.0127622 -1.49019e-21)
(0.0429892 -0.0126799 0)
(0.0433629 -0.0125847 -5.17871e-21)
(0.0437356 -0.0124764 8.82507e-21)
(0.0441073 -0.0123548 1.3714e-22)
(0.0444783 -0.0122199 -9.39276e-21)
(0.0448488 -0.0120716 1.83023e-21)
(0.0452189 -0.0119097 -2.04586e-21)
(0.0455887 -0.0117339 -2.10308e-21)
(0.0459579 -0.0115442 6.3562e-21)
(0.0463262 -0.0113405 -8.66723e-21)
(0.0466932 -0.0111226 4.37983e-21)
(0.0470584 -0.0108905 -2.38688e-21)
(0.047421 -0.0106441 9.32756e-21)
(0.0477806 -0.0103833 -2.27104e-21)
(0.0481363 -0.010108 2.55106e-21)
(0.0484875 -0.00981813 -2.43112e-21)
(0.0488336 -0.00951373 1.18147e-22)
(0.049174 -0.00919476 -1.56326e-20)
(0.0495081 -0.0088612 -2.72088e-21)
(0.0498354 -0.00851306 -1.12129e-22)
(0.0501552 -0.0081504 8.30924e-21)
(0.050467 -0.00777327 -2.76866e-21)
(0.0507702 -0.00738175 5.80943e-21)
(0.0510644 -0.00697596 -8.81156e-21)
(0.051349 -0.006556 0)
(0.0516234 -0.00612202 -3.07101e-21)
(0.0518871 -0.00567418 3.07915e-21)
(0.0521396 -0.00521265 6.14915e-23)
(0.0523804 -0.00473761 -1.64249e-21)
(0.052609 -0.00424924 -1.67263e-21)
(0.0528248 -0.00374772 5.0656e-21)
(0.0530275 -0.00323324 -3.38087e-21)
(0.0532167 -0.00270599 2.62677e-21)
(0.0533918 -0.00216617 -3.53098e-21)
(0.0535526 -0.00161396 1.78898e-21)
(0.0536985 -0.00104953 -4.50368e-22)
(0.0538295 -0.000473074 0)
(0.0539448 0.000115593 4.70797e-22)
(0.0540439 0.000716783 -4.656e-22)
(0.0541264 0.0013305 -9.38733e-22)
(0.0541922 0.0019568 2.80325e-21)
(0.0542407 0.00259574 -1.88032e-21)
(0.0542714 0.00324738 -1.85233e-21)
(0.054284 0.00391181 0)
(0.0542778 0.00458915 -7.50076e-21)
(0.0542524 0.00527959 7.40845e-21)
(0.0542074 0.00598332 -3.63372e-21)
(0.0541422 0.00670057 3.60408e-21)
(0.0540561 0.00743161 3.72572e-21)
(0.0539487 0.00817672 7.29619e-21)
(0.053819 0.00893628 7.24287e-21)
(0.0536665 0.00971069 0)
(0.0534903 0.0105004 -7.48633e-21)
(0.0532895 0.0113058 0)
(0.0530633 0.0121275 1.5251e-22)
(0.0528107 0.0129659 -7.23009e-21)
(0.0525305 0.0138215 7.33926e-21)
(0.0522215 0.0146948 7.25179e-21)
(0.0518823 0.0155863 -7.52903e-21)
(0.0515112 0.0164964 -1.63419e-22)
(0.0511069 0.0174261 9.98936e-23)
(0.0506657 0.0183742 2.22582e-20)
(0.050191 0.0193466 7.63999e-21)
(0.0496609 0.0203263 7.57218e-21)
(0.0491465 0.0213751 -7.51908e-21)
(0.0415143 -0.0135742 0)
(0.0419031 -0.0135222 0)
(0.0422918 -0.0134586 3.35038e-21)
(0.0426852 -0.0133851 -4.98522e-21)
(0.0430815 -0.0132997 -1.80359e-21)
(0.0434787 -0.013201 0)
(0.0438757 -0.0130886 0)
(0.044272 -0.0129624 1.98809e-21)
(0.0446673 -0.0128222 -4.07295e-21)
(0.0450612 -0.0126679 -2.36439e-22)
(0.0454534 -0.0124993 1.05479e-20)
(0.0458437 -0.0123161 -2.15357e-21)
(0.046232 -0.0121182 2.25151e-21)
(0.0466181 -0.0119054 -4.5184e-21)
(0.0470018 -0.0116778 2.40631e-21)
(0.0473828 -0.0114351 0)
(0.0477608 -0.0111774 0)
(0.0481351 -0.0109046 5.85437e-23)
(0.0485053 -0.0106166 -7.73133e-21)
(0.0488708 -0.0103136 2.58096e-21)
(0.0492309 -0.00999532 -2.75233e-21)
(0.049585 -0.00966198 2.69161e-21)
(0.0499324 -0.00931355 2.7998e-21)
(0.0502726 -0.0089501 -2.73733e-21)
(0.0506049 -0.0085717 -2.85751e-21)
(0.0509287 -0.00817846 0)
(0.0512433 -0.00777048 0)
(0.0515484 -0.00734792 4.60028e-21)
(0.0518433 -0.00691093 0)
(0.0521274 -0.00645968 3.22457e-21)
(0.0524002 -0.00599437 -3.23219e-21)
(0.0526613 -0.00551521 -1.6266e-21)
(0.0529101 -0.00502241 1.656e-21)
(0.0531462 -0.0045162 3.43863e-21)
(0.053369 -0.00399681 -1.71623e-21)
(0.0535783 -0.00346446 -1.79062e-21)
(0.0537735 -0.00291937 1.83537e-21)
(0.0539543 -0.00236179 0)
(0.0541203 -0.00179191 0)
(0.0542711 -0.00120993 4.87411e-22)
(0.0544068 -0.000616056 0)
(0.0545263 -1.00504e-05 0)
(0.0546294 0.000608359 -1.47302e-21)
(0.0547159 0.00123915 1.95644e-21)
(0.0547853 0.00188237 -9.87737e-22)
(0.0548374 0.00253807 1.90386e-21)
(0.0548717 0.00320628 0)
(0.0548878 0.00388712 5.84234e-21)
(0.0548852 0.00458072 -4.86935e-23)
(0.0548635 0.00528726 0)
(0.0548223 0.00600696 -7.69073e-21)
(0.054761 0.00674007 -5.27717e-23)
(0.0546791 0.00748687 -7.58804e-21)
(0.054576 0.00824771 -3.89628e-21)
(0.054451 0.00902296 -7.68064e-21)
(0.0543034 0.00981304 7.6169e-21)
(0.0541324 0.0106184 7.51604e-21)
(0.0539373 0.0114396 0)
(0.053717 0.0122771 -7.67557e-21)
(0.0534706 0.0131314 9.87452e-23)
(0.0531969 0.014003 0)
(0.0528948 0.0148926 0)
(0.0525627 0.0158008 7.55286e-21)
(0.0521991 0.0167279 0)
(0.0518026 0.017675 0)
(0.0513695 0.0186415 -7.7313e-21)
(0.0509035 0.0196323 -7.46761e-21)
(0.0503826 0.0206361 -7.99864e-21)
(0.0498706 0.0216887 0)
(0.0415362 -0.0142435 0)
(0.0419426 -0.0141892 0)
(0.0423488 -0.0141228 0)
(0.0427602 -0.0140461 -1.85487e-21)
(0.0431754 -0.0139569 -1.99455e-21)
(0.0435927 -0.0138539 -1.5643e-22)
(0.0440111 -0.0137366 3.92318e-21)
(0.0444301 -0.0136049 -2.01683e-21)
(0.0448489 -0.0134587 2.178e-21)
(0.0452669 -0.0132978 4.37944e-21)
(0.0456833 -0.0131218 0)
(0.0460974 -0.0129307 0)
(0.0465088 -0.0127241 -6.64306e-23)
(0.046917 -0.0125019 7.27753e-21)
(0.0473217 -0.0122641 -1.00372e-20)
(0.0477225 -0.0120105 -1.39912e-22)
(0.0481191 -0.0117411 5.14828e-21)
(0.0485112 -0.0114559 2.61066e-21)
(0.0488981 -0.0111548 -1.22302e-22)
(0.0492796 -0.0108379 0)
(0.049655 -0.0105053 5.69137e-21)
(0.0500237 -0.0101568 0)
(0.0503853 -0.00979278 5.92215e-21)
(0.050739 -0.00941317 -9.04367e-21)
(0.0510843 -0.00901814 9.22766e-21)
(0.0514205 -0.00860784 3.20022e-21)
(0.0517471 -0.00818243 -4.84478e-21)
(0.0520635 -0.00774209 4.89973e-21)
(0.0523691 -0.00728703 -3.27604e-21)
(0.0526633 -0.00681748 0)
(0.0529457 -0.00633368 -3.44539e-21)
(0.0532157 -0.00583588 -1.82621e-21)
(0.0534728 -0.00532433 3.51497e-21)
(0.0537166 -0.00479932 -3.60341e-21)
(0.0539466 -0.0042611 1.84226e-21)
(0.0541624 -0.00370997 -1.85119e-21)
(0.0543637 -0.00314617 -9.29813e-22)
(0.0545501 -0.00256997 9.82892e-22)
(0.0547213 -0.00198162 4.85725e-22)
(0.0548769 -0.00138136 -1.48297e-21)
(0.0550169 -0.000769329 -1.29258e-22)
(0.0551405 -0.00014529 0)
(0.0552474 0.000490946 4.96859e-22)
(0.0553374 0.00113938 -9.92189e-22)
(0.0554103 0.00180001 9.90627e-22)
(0.0554657 0.00247288 0)
(0.0555032 0.00315805 0)
(0.0555225 0.00385561 2.05567e-21)
(0.0555232 0.00456572 -3.98835e-21)
(0.0555049 0.00528857 -8.08248e-21)
(0.0554671 0.00602439 1.59702e-20)
(0.0554095 0.00677346 -4.05196e-21)
(0.0553314 0.00753611 3.96524e-21)
(0.0552324 0.0083127 3.91007e-21)
(0.0551117 0.00910363 -7.97561e-21)
(0.0549687 0.00990935 7.90915e-21)
(0.0548027 0.0107304 0)
(0.0546127 0.0115671 -8.07688e-21)
(0.054398 0.0124203 1.08104e-22)
(0.0541575 0.0132903 7.9126e-21)
(0.05389 0.0141779 0)
(0.0535944 0.0150836 0)
(0.0532692 0.0160081 0)
(0.0529127 0.0169519 1.62035e-20)
(0.052524 0.0179164 8.26583e-21)
(0.0520988 0.0189003 8.01047e-21)
(0.051643 0.0199103 -1.6032e-20)
(0.0511312 0.0209312 -3.08642e-22)
(0.0506447 0.0220216 8.35481e-21)
(0.0415639 -0.0149557 0)
(0.04199 -0.0148991 -3.66797e-21)
(0.0424154 -0.0148295 4.59059e-21)
(0.0428459 -0.0147491 -3.0479e-21)
(0.0432801 -0.0146557 5.95816e-21)
(0.0437166 -0.0145477 2.11797e-21)
(0.0441546 -0.0144248 2.18569e-21)
(0.0445939 -0.0142868 0)
(0.0450339 -0.0141337 -4.52785e-21)
(0.0454738 -0.0139651 -4.61709e-21)
(0.045913 -0.013781 4.69974e-21)
(0.0463504 -0.0135809 -2.51528e-21)
(0.0467853 -0.0133648 2.64917e-21)
(0.0472171 -0.0131324 -2.36935e-21)
(0.0476449 -0.0128836 -1.06868e-20)
(0.0480683 -0.0126184 -1.46886e-22)
(0.0484868 -0.0123366 -1.44515e-22)
(0.0488997 -0.0120383 5.57726e-21)
(0.0493066 -0.0117235 2.82181e-21)
(0.0497069 -0.0113921 5.9575e-21)
(0.0501002 -0.0110443 -5.80458e-21)
(0.0504859 -0.01068 0)
(0.0508635 -0.0102996 1.4005e-22)
(0.0512324 -0.00990298 0)
(0.051592 -0.00949044 -3.17256e-21)
(0.0519418 -0.00906216 -3.23044e-21)
(0.0522812 -0.00861834 1.64416e-21)
(0.0526097 -0.00815924 0)
(0.0529266 -0.0076851 1.77618e-21)
(0.0532315 -0.0071962 3.56018e-21)
(0.0535238 -0.00669285 -3.56652e-21)
(0.053803 -0.00617534 1.79036e-21)
(0.0540686 -0.005644 -3.73724e-21)
(0.0543203 -0.00509915 7.49922e-21)
(0.0545575 -0.00454112 -1.90627e-21)
(0.05478 -0.00397021 0)
(0.0549873 -0.00338676 -1.0111e-21)
(0.0551792 -0.00279106 3.90572e-23)
(0.0553554 -0.00218342 1.53189e-21)
(0.0555156 -0.00156407 -1.29802e-21)
(0.0556597 -0.000933137 2.5753e-22)
(0.055787 -0.000290378 -7.97258e-22)
(0.0558974 0.000364301 5.23323e-22)
(0.0559906 0.00103091 0)
(0.0560665 0.00170944 0)
(0.0561248 0.00239991 0)
(0.0561652 0.00310239 2.12505e-21)
(0.0561873 0.00381697 2.12073e-21)
(0.0561908 0.00454382 0)
(0.0561754 0.00528316 4.13936e-21)
(0.0561407 0.00603523 4.27115e-21)
(0.0560863 0.00680036 4.21069e-21)
(0.0560116 0.00757888 0)
(0.0559161 0.00837119 0)
(0.0557993 0.00917772 -8.2779e-21)
(0.0556604 0.00999895 8.20869e-21)
(0.0554988 0.0108354 0)
(0.0553136 0.0116876 8.10012e-21)
(0.055104 0.0125561 -8.10269e-21)
(0.0548689 0.0134416 -8.39379e-21)
(0.0546073 0.0143447 8.29489e-21)
(0.0543179 0.0152661 -8.23591e-21)
(0.0539995 0.0162066 0)
(0.0536503 0.0171668 -8.17296e-21)
(0.0532694 0.0181482 1.90604e-22)
(0.0528524 0.019149 -1.68814e-20)
(0.0524062 0.0201779 -1.70665e-20)
(0.0519002 0.0212126 1.6761e-20)
(0.0514449 0.022325 -8.3581e-21)
(0.0415951 -0.0157138 -9.44371e-22)
(0.0420431 -0.0156548 0)
(0.04249 -0.0155821 -9.68983e-22)
(0.0429417 -0.0154978 5.21195e-21)
(0.0433971 -0.0153998 -9.50737e-21)
(0.0438543 -0.0152864 2.16651e-21)
(0.0443129 -0.0151572 -2.21694e-21)
(0.0447726 -0.0150123 4.76627e-21)
(0.0452331 -0.0148514 -2.38038e-21)
(0.0456938 -0.0146744 -2.41761e-21)
(0.0461541 -0.0144811 -2.6103e-21)
(0.0466132 -0.0142711 7.84879e-21)
(0.0470702 -0.0140444 -2.52389e-21)
(0.0475243 -0.0138007 8.37021e-21)
(0.0479748 -0.0135399 2.89665e-21)
(0.0484209 -0.0132619 1.54233e-22)
(0.0488618 -0.0129667 -5.78644e-21)
(0.0492969 -0.0126543 0)
(0.0497253 -0.0123246 0)
(0.0501466 -0.0119778 -3.19548e-21)
(0.05056 -0.0116138 -3.10876e-21)
(0.0509649 -0.0112328 -6.5475e-21)
(0.0513607 -0.0108349 3.30495e-21)
(0.0517469 -0.0104203 6.78507e-21)
(0.0521228 -0.00998924 -6.77609e-21)
(0.0524879 -0.00954194 1.78089e-21)
(0.0528417 -0.00907867 1.81086e-21)
(0.0531836 -0.00859972 0)
(0.0535129 -0.0081054 -1.79086e-21)
(0.0538294 -0.00759606 -3.74399e-21)
(0.0541323 -0.00707206 -5.31825e-23)
(0.0544213 -0.00653375 3.81038e-21)
(0.054696 -0.00598152 -1.99112e-21)
(0.0549558 -0.00541577 0)
(0.0552005 -0.00483686 1.02645e-21)
(0.0554297 -0.00424518 -1.04224e-21)
(0.0556431 -0.0036411 1.01695e-21)
(0.0558404 -0.00302497 -2.10798e-21)
(0.0560214 -0.00239714 0)
(0.0561859 -0.00175791 -2.7723e-22)
(0.0563338 -0.0011073 2.7438e-22)
(0.0564645 -0.000445139 -4.20437e-22)
(0.0565779 0.000228586 1.64095e-21)
(0.0566739 0.000913892 -3.27509e-21)
(0.0567524 0.00161074 2.16725e-21)
(0.056813 0.00231916 2.17985e-21)
(0.0568557 0.0030392 -2.08111e-21)
(0.05688 0.00377099 4.41774e-21)
(0.0568858 0.00451471 -4.29996e-21)
(0.0568728 0.00527059 -1.07518e-20)
(0.0568405 0.00603892 5.62822e-23)
(0.0567887 0.00682004 -4.22126e-21)
(0.0567168 0.00761432 0)
(0.0566243 0.00842219 0)
(0.0565108 0.00924411 -8.58778e-21)
(0.0563756 0.0100806 1.27489e-20)
(0.0562179 0.0109322 -8.51219e-21)
(0.056037 0.0117994 0)
(0.0558322 0.012683 8.69992e-21)
(0.0556023 0.0135835 1.70077e-20)
(0.0553465 0.0145018 -8.41786e-21)
(0.0550635 0.0154385 -8.01093e-23)
(0.0547522 0.0163945 8.56469e-21)
(0.054411 0.0173707 -1.1087e-22)
(0.0540386 0.0183686 -1.73332e-20)
(0.053631 0.0193868 1.72099e-20)
(0.0531938 0.0204343 8.59664e-21)
(0.0526932 0.021484 0)
(0.0522549 0.0226373 0)
(0.0416283 -0.0165211 9.58423e-22)
(0.0421002 -0.0164595 5.24908e-21)
(0.0425705 -0.0163836 -4.15627e-21)
(0.0430457 -0.0162953 0)
(0.0435244 -0.0161925 -1.11016e-21)
(0.0440047 -0.0160734 -4.79703e-21)
(0.0444861 -0.0159376 3.51184e-21)
(0.0449683 -0.0157852 -6.37018e-21)
(0.0454509 -0.0156159 5.04858e-21)
(0.0459335 -0.0154298 0)
(0.0464154 -0.0152264 1.25224e-21)
(0.0468959 -0.0150056 0)
(0.0473744 -0.0147672 3.00099e-21)
(0.04785 -0.014511 -8.59241e-21)
(0.0483221 -0.0142371 0)
(0.0487898 -0.0139452 0)
(0.0492524 -0.0136353 0)
(0.049709 -0.0133075 -4.80311e-21)
(0.0501588 -0.0129617 6.40736e-21)
(0.050601 -0.012598 3.2296e-21)
(0.0510349 -0.0122165 0)
(0.0514598 -0.0118174 0)
(0.0518748 -0.0114009 0)
(0.0522795 -0.010967 -8.99248e-21)
(0.052673 -0.0105162 1.08063e-20)
(0.0530547 -0.0100486 -5.43816e-21)
(0.0534241 -0.00956459 -3.73806e-21)
(0.0537806 -0.00906454 3.82283e-21)
(0.0541236 -0.00854881 -3.82364e-21)
(0.0544526 -0.0080178 2.00174e-21)
(0.0547672 -0.00747193 -3.99887e-21)
(0.0550668 -0.00691163 1.94387e-21)
(0.055351 -0.00633735 4.09664e-21)
(0.0556196 -0.00574955 2.12253e-21)
(0.055872 -0.00514867 -1.03275e-21)
(0.0561081 -0.00453517 1.04829e-21)
(0.0563276 -0.00390947 0)
(0.0565303 -0.00327199 -4.41782e-23)
(0.056716 -0.00262311 5.61523e-22)
(0.0568846 -0.0019632 2.97188e-24)