/*--------------------------------*- C++ -*----------------------------------*\
| =========                 |                                                 |
| \\      /  F ield         | OpenFOAM: The Open Source CFD Toolbox           |
|  \\    /   O peration     | Version:  2312                                  |
|   \\  /    A nd           | Website:  www.openfoam.com                      |
|    \\/     M anipulation  |                                                 |
\*---------------------------------------------------------------------------*/
FoamFile
{
    version     2.0;
    format      ascii;
    arch        "LSB;label=32;scalar=64";
    class       volScalarField;
    location    "800";
    object      nut;
}
// * * * * * * * * * * * * * * * * * * * * * * * * * * * * * * * * * * * * * //

dimensions      [0 2 -1 0 0 0 0];

internalField   nonuniform List<scalar> 
76025
(
6.24545e-06
6.23891e-06
6.23446e-06
6.23395e-06
6.24192e-06
6.24851e-06
6.25755e-06
6.264e-06
6.26687e-06
6.26988e-06
6.27425e-06
6.27838e-06
6.28139e-06
6.27958e-06
6.27492e-06
6.27356e-06
6.27227e-06
6.27598e-06
6.27512e-06
6.27255e-06
6.26953e-06
6.26796e-06
6.271e-06
6.27616e-06
6.28298e-06
6.2899e-06
6.30025e-06
6.3093e-06
6.31835e-06
6.3289e-06
6.33869e-06
6.34424e-06
6.35257e-06
6.35782e-06
6.36398e-06
6.36743e-06
6.37181e-06
6.38049e-06
6.38778e-06
6.39473e-06
6.40104e-06
6.40828e-06
6.42004e-06
6.42931e-06
6.43783e-06
6.44528e-06
6.45406e-06
6.45809e-06
6.45748e-06
6.45174e-06
6.43948e-06
6.4211e-06
6.39557e-06
6.36319e-06
6.32686e-06
6.28888e-06
6.25179e-06
6.21744e-06
6.18626e-06
6.1616e-06
6.14399e-06
6.12481e-06
6.10946e-06
6.10459e-06
6.10426e-06
6.10841e-06
6.11305e-06
6.10481e-06
6.08598e-06
6.25504e-06
6.25055e-06
6.24274e-06
6.23281e-06
6.23003e-06
6.23095e-06
6.23738e-06
6.24613e-06
6.25439e-06
6.26057e-06
6.26542e-06
6.26996e-06
6.27501e-06
6.27872e-06
6.27853e-06
6.2769e-06
6.27344e-06
6.27158e-06
6.26971e-06
6.26775e-06
6.26372e-06
6.25699e-06
6.25232e-06
6.24945e-06
6.24856e-06
6.2483e-06
6.25267e-06
6.25948e-06
6.26665e-06
6.27461e-06
6.28284e-06
6.29029e-06
6.29762e-06
6.30407e-06
6.30991e-06
6.31477e-06
6.31851e-06
6.32202e-06
6.32503e-06
6.32742e-06
6.32897e-06
6.32935e-06
6.32877e-06
6.32667e-06
6.32254e-06
6.31598e-06
6.30669e-06
6.2942e-06
6.27925e-06
6.25983e-06
6.23369e-06
6.20641e-06
6.18048e-06
6.15624e-06
6.14046e-06
6.12997e-06
6.12278e-06
6.11828e-06
6.11621e-06
6.11628e-06
6.1179e-06
6.12011e-06
6.12201e-06
6.12301e-06
6.12317e-06
6.12247e-06
6.1175e-06
6.10507e-06
6.09379e-06
6.24305e-06
6.24875e-06
6.24877e-06
6.24401e-06
6.23725e-06
6.23099e-06
6.22798e-06
6.22979e-06
6.23546e-06
6.24265e-06
6.24963e-06
6.2559e-06
6.26183e-06
6.2677e-06
6.27245e-06
6.27556e-06
6.27645e-06
6.27554e-06
6.27359e-06
6.27103e-06
6.26762e-06
6.26302e-06
6.25804e-06
6.25329e-06
6.24792e-06
6.23874e-06
6.23132e-06
6.22643e-06
6.22357e-06
6.2223e-06
6.22238e-06
6.22338e-06
6.22467e-06
6.22594e-06
6.22693e-06
6.22745e-06
6.22726e-06
6.22619e-06
6.22417e-06
6.22113e-06
6.21698e-06
6.21158e-06
6.20483e-06
6.19685e-06
6.18759e-06
6.17727e-06
6.16618e-06
6.15462e-06
6.14313e-06
6.13224e-06
6.12172e-06
6.11205e-06
6.10877e-06
6.10797e-06
6.1085e-06
6.11005e-06
6.1124e-06
6.11525e-06
6.11826e-06
6.12099e-06
6.12286e-06
6.12324e-06
6.1218e-06
6.11869e-06
6.11395e-06
6.10695e-06
6.09432e-06
6.0753e-06
6.05891e-06
6.21066e-06
6.22387e-06
6.23404e-06
6.23971e-06
6.24042e-06
6.23728e-06
6.23218e-06
6.22753e-06
6.22564e-06
6.2272e-06
6.23138e-06
6.23693e-06
6.24299e-06
6.24931e-06
6.2557e-06
6.26169e-06
6.26675e-06
6.27034e-06
6.27232e-06
6.27283e-06
6.27208e-06
6.27011e-06
6.26717e-06
6.26359e-06
6.25916e-06
6.25321e-06
6.2463e-06
6.23921e-06
6.23249e-06
6.22643e-06
6.22068e-06
6.21363e-06
6.20445e-06
6.1962e-06
6.18915e-06
6.18291e-06
6.17716e-06
6.17161e-06
6.16607e-06
6.16039e-06
6.15448e-06
6.14832e-06
6.14181e-06
6.13524e-06
6.12859e-06
6.12501e-06
6.12343e-06
6.12289e-06
6.12296e-06
6.12347e-06
6.12434e-06
6.12549e-06
6.12696e-06
6.12869e-06
6.13052e-06
6.13223e-06
6.13359e-06
6.13431e-06
6.13407e-06
6.13247e-06
6.12908e-06
6.12363e-06
6.11625e-06
6.10719e-06
6.09604e-06
6.08176e-06
6.06191e-06
6.03853e-06
6.02246e-06
6.17845e-06
6.18547e-06
6.19452e-06
6.207e-06
6.2178e-06
6.22476e-06
6.22739e-06
6.2264e-06
6.22356e-06
6.22092e-06
6.21991e-06
6.22099e-06
6.22393e-06
6.22822e-06
6.23347e-06
6.23934e-06
6.24548e-06
6.25144e-06
6.25675e-06
6.26107e-06
6.26421e-06
6.26608e-06
6.26669e-06
6.26621e-06
6.26478e-06
6.26235e-06
6.25887e-06
6.25453e-06
6.24962e-06
6.24436e-06
6.23875e-06
6.23248e-06
6.2255e-06
6.21828e-06
6.2112e-06
6.20443e-06
6.19808e-06
6.19216e-06
6.18675e-06
6.18184e-06
6.17737e-06
6.17347e-06
6.17018e-06
6.16711e-06
6.1642e-06
6.16164e-06
6.1595e-06
6.15779e-06
6.15645e-06
6.15541e-06
6.15456e-06
6.15374e-06
6.15281e-06
6.15158e-06
6.14987e-06
6.14747e-06
6.14416e-06
6.13969e-06
6.13379e-06
6.12614e-06
6.11654e-06
6.10511e-06
6.09215e-06
6.07758e-06
6.06047e-06
6.04e-06
6.0155e-06
5.99125e-06
5.9776e-06
6.16169e-06
6.1601e-06
6.1617e-06
6.16698e-06
6.17467e-06
6.18514e-06
6.19532e-06
6.20297e-06
6.20723e-06
6.2086e-06
6.20828e-06
6.2076e-06
6.20754e-06
6.20858e-06
6.21086e-06
6.21431e-06
6.21873e-06
6.22387e-06
6.22943e-06
6.23506e-06
6.24038e-06
6.2451e-06
6.24901e-06
6.25199e-06
6.25403e-06
6.2551e-06
6.2552e-06
6.25435e-06
6.25267e-06
6.2503e-06
6.24737e-06
6.24392e-06
6.2399e-06
6.23542e-06
6.23062e-06
6.22568e-06
6.22071e-06
6.21581e-06
6.21114e-06
6.20675e-06
6.20262e-06
6.19888e-06
6.19551e-06
6.19221e-06
6.18893e-06
6.18572e-06
6.18256e-06
6.17939e-06
6.17615e-06
6.17274e-06
6.16906e-06
6.16498e-06
6.16035e-06
6.15502e-06
6.14885e-06
6.14166e-06
6.13328e-06
6.12353e-06
6.11219e-06
6.09914e-06
6.08447e-06
6.06849e-06
6.05128e-06
6.0322e-06
6.01028e-06
5.98578e-06
5.95978e-06
5.93737e-06
5.92371e-06
6.15956e-06
6.15155e-06
6.14521e-06
6.14195e-06
6.14184e-06
6.14484e-06
6.15016e-06
6.15703e-06
6.16549e-06
6.17288e-06
6.17822e-06
6.18152e-06
6.18339e-06
6.18457e-06
6.18572e-06
6.18726e-06
6.18943e-06
6.19238e-06
6.19612e-06
6.20049e-06
6.20528e-06
6.21028e-06
6.21524e-06
6.21991e-06
6.22409e-06
6.22766e-06
6.2305e-06
6.23257e-06
6.23386e-06
6.2344e-06
6.23425e-06
6.23348e-06
6.2321e-06
6.23016e-06
6.22773e-06
6.22488e-06
6.2217e-06
6.21824e-06
6.21465e-06
6.21098e-06
6.20722e-06
6.2035e-06
6.19982e-06
6.19589e-06
6.19166e-06
6.18714e-06
6.18232e-06
6.17713e-06
6.17152e-06
6.1654e-06
6.15868e-06
6.15124e-06
6.14299e-06
6.1338e-06
6.12358e-06
6.11222e-06
6.0996e-06
6.0856e-06
6.07014e-06
6.0533e-06
6.03535e-06
6.01643e-06
5.99613e-06
5.97352e-06
5.94836e-06
5.92233e-06
5.8973e-06
5.87667e-06
5.8594e-06
6.14991e-06
6.1469e-06
6.13755e-06
6.12905e-06
6.12264e-06
6.11866e-06
6.11707e-06
6.11766e-06
6.12023e-06
6.1241e-06
6.12943e-06
6.13531e-06
6.14062e-06
6.14493e-06
6.14822e-06
6.15079e-06
6.15303e-06
6.15526e-06
6.15767e-06
6.16041e-06
6.16359e-06
6.16723e-06
6.17121e-06
6.17537e-06
6.17956e-06
6.18364e-06
6.18746e-06
6.19086e-06
6.19375e-06
6.19607e-06
6.19779e-06
6.19891e-06
6.19942e-06
6.19932e-06
6.19863e-06
6.1974e-06
6.19565e-06
6.19341e-06
6.19077e-06
6.18777e-06
6.18438e-06
6.18071e-06
6.17677e-06
6.17225e-06
6.16712e-06
6.16141e-06
6.1551e-06
6.14814e-06
6.14048e-06
6.13208e-06
6.12286e-06
6.11275e-06
6.10167e-06
6.08958e-06
6.07641e-06
6.06211e-06
6.04662e-06
6.02988e-06
6.01196e-06
5.99306e-06
5.97333e-06
5.95247e-06
5.92967e-06
5.90443e-06
5.87785e-06
5.85225e-06
5.82864e-06
5.80635e-06
5.78171e-06
6.12439e-06
6.12958e-06
6.12831e-06
6.12149e-06
6.11179e-06
6.10317e-06
6.09626e-06
6.09116e-06
6.08785e-06
6.08614e-06
6.08588e-06
6.08682e-06
6.08891e-06
6.09236e-06
6.09631e-06
6.10023e-06
6.10387e-06
6.10705e-06
6.10984e-06
6.11245e-06
6.11502e-06
6.11764e-06
6.12036e-06
6.12326e-06
6.12633e-06
6.1295e-06
6.13266e-06
6.13571e-06
6.13856e-06
6.14112e-06
6.1433e-06
6.14503e-06
6.14627e-06
6.14697e-06
6.14714e-06
6.14674e-06
6.14575e-06
6.14418e-06
6.14208e-06
6.13945e-06
6.13624e-06
6.13256e-06
6.12838e-06
6.12341e-06
6.11761e-06
6.11103e-06
6.10366e-06
6.09547e-06
6.08643e-06
6.07651e-06
6.06567e-06
6.05387e-06
6.04107e-06
6.02727e-06
6.01243e-06
5.99654e-06
5.97955e-06
5.96148e-06
5.94246e-06
5.92258e-06
5.90164e-06
5.87894e-06
5.85388e-06
5.82704e-06
5.80045e-06
5.77555e-06
5.75076e-06
5.72145e-06
5.68637e-06
6.0866e-06
6.0964e-06
6.10154e-06
6.10151e-06
6.09722e-06
6.09003e-06
6.0811e-06
6.0723e-06
6.06471e-06
6.05846e-06
6.05352e-06
6.04974e-06
6.04701e-06
6.04533e-06
6.04468e-06
6.0454e-06
6.04725e-06
6.04967e-06
6.05238e-06
6.05514e-06
6.05773e-06
6.06013e-06
6.06243e-06
6.06466e-06
6.06683e-06
6.06893e-06
6.07101e-06
6.07304e-06
6.07498e-06
6.07673e-06
6.07826e-06
6.0795e-06
6.0804e-06
6.0809e-06
6.08094e-06
6.08049e-06
6.0795e-06
6.07796e-06
6.07589e-06
6.07322e-06
6.0699e-06
6.06605e-06
6.06159e-06
6.05623e-06
6.04996e-06
6.04283e-06
6.03483e-06
6.02595e-06
6.01617e-06
6.00548e-06
5.99385e-06
5.98125e-06
5.96769e-06
5.95314e-06
5.9376e-06
5.921e-06
5.90334e-06
5.88464e-06
5.86494e-06
5.84405e-06
5.82143e-06
5.79649e-06
5.76947e-06
5.74189e-06
5.71527e-06
5.68872e-06
5.65754e-06
5.61688e-06
5.56648e-06
6.04094e-06
6.04827e-06
6.05291e-06
6.05642e-06
6.05797e-06
6.0569e-06
6.05318e-06
6.04733e-06
6.04007e-06
6.03232e-06
6.02489e-06
6.01816e-06
6.01219e-06
6.00698e-06
6.00251e-06
5.99884e-06
5.99611e-06
5.99454e-06
5.99417e-06
5.99463e-06
5.99565e-06
5.99706e-06
5.99864e-06
6.00018e-06
6.00166e-06
6.00307e-06
6.00436e-06
6.00549e-06
6.00645e-06
6.00725e-06
6.00785e-06
6.00819e-06
6.00823e-06
6.00795e-06
6.00731e-06
6.00626e-06
6.00472e-06
6.00269e-06
6.0002e-06
5.99715e-06
5.99345e-06
5.98923e-06
5.98439e-06
5.97864e-06
5.97199e-06
5.96448e-06
5.95611e-06
5.94686e-06
5.93673e-06
5.92568e-06
5.9137e-06
5.90075e-06
5.88682e-06
5.87186e-06
5.85581e-06
5.8386e-06
5.82021e-06
5.8006e-06
5.77958e-06
5.75673e-06
5.73156e-06
5.70416e-06
5.67554e-06
5.64697e-06
5.61795e-06
5.58491e-06
5.54208e-06
5.48717e-06
5.42582e-06
5.99302e-06
5.99566e-06
5.99806e-06
6.00047e-06
6.0023e-06
6.00307e-06
6.00253e-06
6.00065e-06
5.99743e-06
5.99293e-06
5.98743e-06
5.9813e-06
5.9749e-06
5.96852e-06
5.96234e-06
5.95647e-06
5.95103e-06
5.94617e-06
5.94206e-06
5.93887e-06
5.93663e-06
5.93515e-06
5.93429e-06
5.93394e-06
5.93394e-06
5.93409e-06
5.93426e-06
5.93442e-06
5.93449e-06
5.93438e-06
5.93406e-06
5.93353e-06
5.93272e-06
5.9316e-06
5.93013e-06
5.92829e-06
5.92603e-06
5.92334e-06
5.92022e-06
5.91656e-06
5.9123e-06
5.90757e-06
5.90224e-06
5.89601e-06
5.88891e-06
5.88099e-06
5.87223e-06
5.8626e-06
5.85206e-06
5.84059e-06
5.82814e-06
5.81464e-06
5.80004e-06
5.78423e-06
5.76713e-06
5.74865e-06
5.72872e-06
5.70714e-06
5.68359e-06
5.65769e-06
5.62947e-06
5.59961e-06
5.56887e-06
5.53689e-06
5.50089e-06
5.45621e-06
5.39936e-06
5.33355e-06
5.26852e-06
5.94118e-06
5.9416e-06
5.94217e-06
5.94293e-06
5.94368e-06
5.94413e-06
5.94403e-06
5.94318e-06
5.94146e-06
5.9388e-06
5.93527e-06
5.93097e-06
5.92604e-06
5.92061e-06
5.91483e-06
5.90883e-06
5.90274e-06
5.89669e-06
5.89083e-06
5.88534e-06
5.88038e-06
5.87607e-06
5.87241e-06
5.86932e-06
5.86676e-06
5.86469e-06
5.86301e-06
5.86154e-06
5.86015e-06
5.8588e-06
5.85741e-06
5.85585e-06
5.85407e-06
5.85206e-06
5.84977e-06
5.84711e-06
5.84404e-06
5.84061e-06
5.83679e-06
5.83239e-06
5.82743e-06
5.82205e-06
5.81603e-06
5.80911e-06
5.80134e-06
5.79274e-06
5.78328e-06
5.7729e-06
5.76154e-06
5.74912e-06
5.73557e-06
5.72079e-06
5.70468e-06
5.68711e-06
5.66799e-06
5.64718e-06
5.62452e-06
5.59973e-06
5.57257e-06
5.54305e-06
5.51153e-06
5.47835e-06
5.44297e-06
5.40323e-06
5.35566e-06
5.29743e-06
5.23031e-06
5.16194e-06
5.11142e-06
5.88827e-06
5.88683e-06
5.88549e-06
5.88434e-06
5.88333e-06
5.88237e-06
5.88132e-06
5.88001e-06
5.8783e-06
5.87609e-06
5.8733e-06
5.86989e-06
5.86588e-06
5.8613e-06
5.85619e-06
5.85063e-06
5.8447e-06
5.83848e-06
5.83207e-06
5.82558e-06
5.81915e-06
5.81297e-06
5.8072e-06
5.80195e-06
5.7972e-06
5.79287e-06
5.78893e-06
5.7854e-06
5.78222e-06
5.77923e-06
5.7763e-06
5.77338e-06
5.77042e-06
5.76729e-06
5.76393e-06
5.76028e-06
5.75628e-06
5.75194e-06
5.7472e-06
5.74185e-06
5.73597e-06
5.72969e-06
5.72269e-06
5.71473e-06
5.70587e-06
5.69611e-06
5.68537e-06
5.67359e-06
5.66065e-06
5.64647e-06
5.63093e-06
5.6139e-06
5.59526e-06
5.5749e-06
5.55268e-06
5.52843e-06
5.5019e-06
5.47296e-06
5.4416e-06
5.40795e-06
5.37191e-06
5.33271e-06
5.28861e-06
5.23736e-06
5.17738e-06
5.1101e-06
5.04166e-06
4.98329e-06
4.94271e-06
5.82919e-06
5.8268e-06
5.82428e-06
5.82174e-06
5.81923e-06
5.81675e-06
5.81428e-06
5.81174e-06
5.80908e-06
5.8062e-06
5.80303e-06
5.7995e-06
5.79557e-06
5.7912e-06
5.78637e-06
5.78109e-06
5.77536e-06
5.76921e-06
5.76266e-06
5.75576e-06
5.74855e-06
5.74113e-06
5.73357e-06
5.72602e-06
5.71869e-06
5.71186e-06
5.70567e-06
5.70001e-06
5.69472e-06
5.68975e-06
5.68512e-06
5.68068e-06
5.67623e-06
5.67172e-06
5.66712e-06
5.66227e-06
5.65707e-06
5.6516e-06
5.64567e-06
5.63906e-06
5.63199e-06
5.62448e-06
5.61608e-06
5.60662e-06
5.59614e-06
5.5846e-06
5.57188e-06
5.55789e-06
5.54252e-06
5.52565e-06
5.50717e-06
5.48693e-06
5.46481e-06
5.44068e-06
5.41437e-06
5.38569e-06
5.3545e-06
5.32078e-06
5.28443e-06
5.24502e-06
5.20158e-06
5.15279e-06
5.09748e-06
5.03551e-06
4.96858e-06
4.90127e-06
4.84089e-06
4.79078e-06
4.76548e-06
5.75974e-06
5.75687e-06
5.75373e-06
5.75041e-06
5.74696e-06
5.7434e-06
5.73975e-06
5.73601e-06
5.73217e-06
5.72819e-06
5.72405e-06
5.71969e-06
5.71507e-06
5.71017e-06
5.70493e-06
5.69934e-06
5.69337e-06
5.687e-06
5.68022e-06
5.67304e-06
5.66545e-06
5.65747e-06
5.6491e-06
5.64038e-06
5.63134e-06
5.62203e-06
5.61258e-06
5.60311e-06
5.59396e-06
5.5856e-06
5.57805e-06
5.571e-06
5.56431e-06
5.55794e-06
5.55165e-06
5.54518e-06
5.53854e-06
5.53169e-06
5.52421e-06
5.51603e-06
5.50756e-06
5.49853e-06
5.48828e-06
5.4767e-06
5.46385e-06
5.44971e-06
5.43419e-06
5.41716e-06
5.39851e-06
5.37811e-06
5.35584e-06
5.33159e-06
5.30522e-06
5.27654e-06
5.24536e-06
5.21155e-06
5.175e-06
5.13542e-06
5.0921e-06
5.04412e-06
4.99065e-06
4.93151e-06
4.86767e-06
4.8014e-06
4.7354e-06
4.67291e-06
4.61604e-06
4.55999e-06
4.49903e-06
5.67645e-06
5.67313e-06
5.66951e-06
5.66566e-06
5.66159e-06
5.65732e-06
5.65286e-06
5.64821e-06
5.64339e-06
5.63839e-06
5.63319e-06
5.6278e-06
5.62219e-06
5.61633e-06
5.61021e-06
5.60379e-06
5.59705e-06
5.58997e-06
5.58253e-06
5.5747e-06
5.56646e-06
5.55781e-06
5.54872e-06
5.53919e-06
5.5292e-06
5.51876e-06
5.50787e-06
5.49652e-06
5.48475e-06
5.4726e-06
5.46013e-06
5.44748e-06
5.435e-06
5.42336e-06
5.41267e-06
5.40256e-06
5.39292e-06
5.38344e-06
5.37345e-06
5.36321e-06
5.35291e-06
5.34161e-06
5.32853e-06
5.31394e-06
5.29802e-06
5.2807e-06
5.2618e-06
5.24118e-06
5.21876e-06
5.1944e-06
5.16792e-06
5.13918e-06
5.108e-06
5.07419e-06
5.03752e-06
4.99775e-06
4.95444e-06
4.90686e-06
4.85428e-06
4.79656e-06
4.73442e-06
4.66931e-06
4.60325e-06
4.53744e-06
4.4707e-06
4.40101e-06
4.3232e-06
4.22597e-06
4.09079e-06
5.57534e-06
5.57139e-06
5.56716e-06
5.56271e-06
5.55803e-06
5.55312e-06
5.54797e-06
5.54259e-06
5.53697e-06
5.5311e-06
5.52499e-06
5.51862e-06
5.512e-06
5.50511e-06
5.49793e-06
5.49045e-06
5.48266e-06
5.47453e-06
5.46604e-06
5.45718e-06
5.44791e-06
5.43822e-06
5.42808e-06
5.41748e-06
5.40638e-06
5.39477e-06
5.38263e-06
5.36992e-06
5.35662e-06
5.34273e-06
5.32821e-06
5.31304e-06
5.29722e-06
5.28079e-06
5.26375e-06
5.24619e-06
5.22841e-06
5.2111e-06
5.19459e-06
5.1794e-06
5.16449e-06
5.14814e-06
5.13032e-06
5.11147e-06
5.09152e-06
5.0702e-06
5.04727e-06
5.02258e-06
4.99594e-06
4.96712e-06
4.9359e-06
4.9021e-06
4.86543e-06
4.8256e-06
4.78219e-06
4.73473e-06
4.68272e-06
4.62593e-06
4.56476e-06
4.50057e-06
4.43465e-06
4.36716e-06
4.29723e-06
4.22158e-06
4.13216e-06
4.02324e-06
3.8917e-06
3.72334e-06
3.49529e-06
5.4508e-06
5.446e-06
5.44095e-06
5.43567e-06
5.43019e-06
5.42448e-06
5.41854e-06
5.41234e-06
5.40588e-06
5.39914e-06
5.39212e-06
5.3848e-06
5.37718e-06
5.36923e-06
5.36096e-06
5.35234e-06
5.34337e-06
5.33402e-06
5.32429e-06
5.31414e-06
5.30356e-06
5.29252e-06
5.281e-06
5.26898e-06
5.25642e-06
5.24329e-06
5.22957e-06
5.21522e-06
5.20021e-06
5.1845e-06
5.16806e-06
5.15083e-06
5.13277e-06
5.11385e-06
5.09401e-06
5.0732e-06
5.05138e-06
5.02852e-06
5.0046e-06
4.97961e-06
4.95349e-06
4.92616e-06
4.89806e-06
4.87032e-06
4.8431e-06
4.8157e-06
4.78732e-06
4.75731e-06
4.72523e-06
4.6907e-06
4.65344e-06
4.61316e-06
4.56941e-06
4.52166e-06
4.46956e-06
4.41316e-06
4.3529e-06
4.28933e-06
4.22309e-06
4.1545e-06
4.08183e-06
4.00065e-06
3.90518e-06
3.78979e-06
3.64701e-06
3.47378e-06
3.27516e-06
3.04907e-06
2.7797e-06
5.29425e-06
5.28843e-06
5.28235e-06
5.27605e-06
5.26953e-06
5.26279e-06
5.2558e-06
5.24856e-06
5.24105e-06
5.23324e-06
5.22513e-06
5.21669e-06
5.20792e-06
5.19879e-06
5.18929e-06
5.17939e-06
5.16909e-06
5.15837e-06
5.14719e-06
5.13555e-06
5.12342e-06
5.11077e-06
5.09758e-06
5.08381e-06
5.06944e-06
5.05443e-06
5.03874e-06
5.02234e-06
5.00519e-06
4.98723e-06
4.96841e-06
4.9487e-06
4.92802e-06
4.90632e-06
4.88353e-06
4.85958e-06
4.83439e-06
4.80788e-06
4.77997e-06
4.75055e-06
4.71953e-06
4.68675e-06
4.6521e-06
4.61548e-06
4.57678e-06
4.53595e-06
4.49327e-06
4.4499e-06
4.40631e-06
4.36155e-06
4.31454e-06
4.26443e-06
4.2106e-06
4.15288e-06
4.09187e-06
4.0283e-06
3.96187e-06
3.89133e-06
3.81488e-06
3.72831e-06
3.62475e-06
3.50051e-06
3.35412e-06
3.18047e-06
2.9733e-06
2.76316e-06
2.55347e-06
2.31745e-06
2.04556e-06
5.09244e-06
5.08546e-06
5.0782e-06
5.07069e-06
5.06293e-06
5.05492e-06
5.04664e-06
5.03808e-06
5.02923e-06
5.02006e-06
5.01056e-06
5.00071e-06
4.99049e-06
4.97987e-06
4.96885e-06
4.95739e-06
4.94547e-06
4.93307e-06
4.92016e-06
4.90671e-06
4.8927e-06
4.8781e-06
4.86287e-06
4.84698e-06
4.83038e-06
4.81305e-06
4.79493e-06
4.77598e-06
4.75615e-06
4.73538e-06
4.71361e-06
4.69078e-06
4.66681e-06
4.64164e-06
4.61518e-06
4.58733e-06
4.55801e-06
4.5271e-06
4.4945e-06
4.46009e-06
4.42373e-06
4.38526e-06
4.34451e-06
4.3013e-06
4.25545e-06
4.20675e-06
4.15501e-06
4.10003e-06
4.04156e-06
3.97935e-06
3.91386e-06
3.84652e-06
3.77884e-06
3.71116e-06
3.64231e-06
3.56925e-06
3.48703e-06
3.39055e-06
3.27817e-06
3.14854e-06
2.99506e-06
2.81507e-06
2.62285e-06
2.43503e-06
2.2433e-06
2.04781e-06
1.85103e-06
1.66742e-06
1.51423e-06
4.82495e-06
4.81662e-06
4.80798e-06
4.79906e-06
4.78984e-06
4.78033e-06
4.77051e-06
4.76036e-06
4.74988e-06
4.73904e-06
4.72783e-06
4.71622e-06
4.70419e-06
4.69172e-06
4.67879e-06
4.66536e-06
4.65142e-06
4.63693e-06
4.62185e-06
4.60617e-06
4.58983e-06
4.57281e-06
4.55507e-06
4.53655e-06
4.51722e-06
4.49703e-06
4.47592e-06
4.45382e-06
4.43069e-06
4.40646e-06
4.38104e-06
4.35436e-06
4.32634e-06
4.29688e-06
4.26588e-06
4.23323e-06
4.19881e-06
4.16251e-06
4.12415e-06
4.08365e-06
4.0408e-06
3.9954e-06
3.94726e-06
3.89617e-06
3.84191e-06
3.78428e-06
3.72303e-06
3.65785e-06
3.58841e-06
3.51452e-06
3.43608e-06
3.35112e-06
3.2644e-06
3.178e-06
3.08566e-06
2.98192e-06
2.86162e-06
2.71968e-06
2.5568e-06
2.38703e-06
2.2173e-06
2.05847e-06
1.89561e-06
1.73171e-06
1.57958e-06
1.45843e-06
1.37065e-06
1.34459e-06
1.41151e-06
4.45985e-06
4.44987e-06
4.43958e-06
4.42896e-06
4.418e-06
4.40671e-06
4.39505e-06
4.38302e-06
4.3706e-06
4.35776e-06
4.34449e-06
4.33076e-06
4.31654e-06
4.30183e-06
4.28657e-06
4.27075e-06
4.25433e-06
4.23729e-06
4.21957e-06
4.20115e-06
4.18198e-06
4.16201e-06
4.14121e-06
4.11951e-06
4.09686e-06
4.0732e-06
4.04847e-06
4.02259e-06
3.99549e-06
3.96709e-06
3.93731e-06
3.90603e-06
3.87317e-06
3.83861e-06
3.80223e-06
3.76389e-06
3.72347e-06
3.68079e-06
3.63576e-06
3.58822e-06
3.53791e-06
3.48463e-06
3.42815e-06
3.36821e-06
3.3046e-06
3.23706e-06
3.16517e-06
3.08833e-06
3.00607e-06
2.91825e-06
2.82416e-06
2.72177e-06
2.60922e-06
2.48675e-06
2.35582e-06
2.21675e-06
2.06945e-06
1.92369e-06
1.79257e-06
1.66153e-06
1.5298e-06
1.40985e-06
1.31198e-06
1.23974e-06
1.20862e-06
1.25721e-06
1.37869e-06
1.60863e-06
1.98294e-06
3.94749e-06
3.93557e-06
3.92333e-06
3.91073e-06
3.89778e-06
3.88444e-06
3.8707e-06
3.85653e-06
3.84193e-06
3.82685e-06
3.81129e-06
3.7952e-06
3.77858e-06
3.76137e-06
3.74356e-06
3.72511e-06
3.70599e-06
3.68615e-06
3.66556e-06
3.64417e-06
3.62193e-06
3.5988e-06
3.57472e-06
3.54962e-06
3.52346e-06
3.49615e-06
3.46762e-06
3.4378e-06
3.40661e-06
3.37394e-06
3.3397e-06
3.30379e-06
3.26608e-06
3.22646e-06
3.1848e-06
3.14095e-06
3.09475e-06
3.0461e-06
2.99482e-06
2.94063e-06
2.88328e-06
2.82249e-06
2.75799e-06
2.68951e-06
2.61667e-06
2.53891e-06
2.4555e-06
2.36579e-06
2.26979e-06
2.1676e-06
2.05818e-06
1.94065e-06
1.81743e-06
1.69207e-06
1.56983e-06
1.46143e-06
1.35753e-06
1.26348e-06
1.18698e-06
1.12369e-06
1.07174e-06
1.0609e-06
1.11352e-06
1.22895e-06
1.42316e-06
1.71813e-06
2.13441e-06
2.73867e-06
3.5893e-06
3.21808e-06
3.20429e-06
3.19023e-06
3.17581e-06
3.16103e-06
3.14584e-06
3.13025e-06
3.11421e-06
3.09771e-06
3.08072e-06
3.06322e-06
3.04517e-06
3.02656e-06
3.00735e-06
2.9875e-06
2.96699e-06
2.94577e-06
2.9238e-06
2.90106e-06
2.87748e-06
2.85303e-06
2.82764e-06
2.80128e-06
2.77387e-06
2.74536e-06
2.71568e-06
2.68475e-06
2.6525e-06
2.61885e-06
2.58371e-06
2.54698e-06
2.50857e-06
2.46836e-06
2.42626e-06
2.38214e-06
2.33588e-06
2.28733e-06
2.23626e-06
2.18233e-06
2.12527e-06
2.06474e-06
2.00044e-06
1.93228e-06
1.8601e-06
1.78341e-06
1.70196e-06
1.61576e-06
1.52595e-06
1.43537e-06
1.34509e-06
1.253e-06
1.16125e-06
1.08658e-06
1.02991e-06
9.80954e-07
9.34861e-07
9.04407e-07
9.00556e-07
9.41487e-07
1.02092e-06
1.14732e-06
1.33288e-06
1.59467e-06
1.95346e-06
2.43271e-06
3.05767e-06
3.85392e-06
4.89731e-06
6.20892e-06
2.21715e-06
2.20321e-06
2.18908e-06
2.17469e-06
2.15999e-06
2.14497e-06
2.12961e-06
2.11389e-06
2.09779e-06
2.08128e-06
2.06435e-06
2.04698e-06
2.02913e-06
2.0108e-06
1.99194e-06
1.97254e-06
1.95257e-06
1.93199e-06
1.91078e-06
1.8889e-06
1.86631e-06
1.84299e-06
1.81888e-06
1.79395e-06
1.76814e-06
1.74142e-06
1.71374e-06
1.68503e-06
1.65525e-06
1.62435e-06
1.59226e-06
1.55892e-06
1.52425e-06
1.48824e-06
1.45094e-06
1.41157e-06
1.36991e-06
1.32593e-06
1.27967e-06
1.23117e-06
1.18059e-06
1.12843e-06
1.07515e-06
1.02081e-06
9.66556e-07
9.14928e-07
8.6719e-07
8.24622e-07
7.89066e-07
7.6169e-07
7.4138e-07
7.28212e-07
7.35158e-07
7.69596e-07
8.25041e-07
9.05055e-07
1.01465e-06
1.16004e-06
1.34952e-06
1.59222e-06
1.89802e-06
2.27749e-06
2.74288e-06
3.30792e-06
3.9846e-06
4.783e-06
5.71668e-06
6.8192e-06
8.00516e-06
1.05937e-06
1.04997e-06
1.04059e-06
1.03115e-06
1.02165e-06
1.01206e-06
1.00237e-06
9.92587e-07
9.82686e-07
9.72659e-07
9.62494e-07
9.52177e-07
9.41697e-07
9.3104e-07
9.20194e-07
9.09144e-07
8.97878e-07
8.86382e-07
8.74641e-07
8.6264e-07
8.50366e-07
8.37801e-07
8.24929e-07
8.11736e-07
7.98205e-07
7.84315e-07
7.70051e-07
7.55408e-07
7.40369e-07
7.2492e-07
7.09059e-07
6.92775e-07
6.76077e-07
6.5906e-07
6.41801e-07
6.24822e-07
6.08413e-07
5.92865e-07
5.78402e-07
5.65148e-07
5.53658e-07
5.45191e-07
5.39143e-07
5.32666e-07
5.33462e-07
5.53174e-07
5.82031e-07
6.19347e-07
6.66178e-07
7.24155e-07
7.95115e-07
8.80714e-07
9.82687e-07
1.10322e-06
1.24414e-06
1.40706e-06
1.59351e-06
1.80482e-06
2.04208e-06
2.30608e-06
2.59833e-06
2.92211e-06
3.28573e-06
3.69729e-06
4.15425e-06
4.63668e-06
5.1081e-06
5.50858e-06
5.69766e-06
2.42036e-07
2.44868e-07
2.48111e-07
2.5207e-07
2.56683e-07
2.61799e-07
2.67283e-07
2.73031e-07
2.78966e-07
2.85032e-07
2.91185e-07
2.97391e-07
3.03623e-07
3.09863e-07
3.16093e-07
3.22302e-07
3.28481e-07
3.34625e-07
3.40729e-07
3.46792e-07
3.52815e-07
3.58799e-07
3.64753e-07
3.70685e-07
3.76586e-07
3.82484e-07
3.88452e-07
3.94324e-07
4.00321e-07
4.07275e-07
4.15459e-07
4.25027e-07
4.36127e-07
4.48871e-07
4.63416e-07
4.79939e-07
4.98635e-07
5.19716e-07
5.43398e-07
5.6987e-07
5.99312e-07
6.31945e-07
6.67934e-07
7.07142e-07
7.49375e-07
7.94683e-07
8.427e-07
8.92767e-07
9.43984e-07
9.95246e-07
1.04531e-06
1.09287e-06
1.13672e-06
1.17593e-06
1.21007e-06
1.23933e-06
1.26446e-06
1.28627e-06
1.30528e-06
1.32108e-06
1.33687e-06
1.35916e-06
1.3972e-06
1.45402e-06
1.50948e-06
1.51699e-06
1.41604e-06
1.15977e-06
8.39754e-07
1.43499e-07
1.48962e-07
1.54666e-07
1.60651e-07
1.66935e-07
1.7352e-07
1.80404e-07
1.87576e-07
1.95026e-07
2.02738e-07
2.10695e-07
2.1888e-07
2.27271e-07
2.35848e-07
2.44587e-07
2.53464e-07
2.62452e-07
2.71523e-07
2.80648e-07
2.89796e-07
2.98932e-07
3.08023e-07
3.17029e-07
3.25906e-07
3.34612e-07
3.43099e-07
3.51272e-07
3.59172e-07
3.66517e-07
3.72537e-07
3.7714e-07
3.80366e-07
3.82245e-07
3.82754e-07
3.81847e-07
3.79458e-07
3.75507e-07
3.69905e-07
3.62557e-07
3.53372e-07
3.42273e-07
3.29211e-07
3.14176e-07
2.97205e-07
2.78397e-07
2.57934e-07
2.36084e-07
2.13214e-07
1.89777e-07
1.66295e-07
1.43329e-07
1.2145e-07
1.01188e-07
8.29823e-08
6.7129e-08
5.3711e-08
4.25126e-08
3.29669e-08
2.44257e-08
1.70868e-08
1.21558e-08
8.51051e-09
6.3901e-09
4.72332e-09
4.80149e-09
5.00641e-09
4.72251e-09
3.73792e-09
3.06387e-09
6.35593e-06
6.35166e-06
6.35089e-06
6.35259e-06
6.35727e-06
6.36403e-06
6.36666e-06
6.36464e-06
6.35732e-06
6.34697e-06
6.3381e-06
6.32818e-06
6.31774e-06
6.31028e-06
6.31258e-06
6.31174e-06
6.28977e-06
6.2689e-06
6.25771e-06
6.25907e-06
6.24575e-06
6.21838e-06
6.23117e-06
6.24117e-06
6.24932e-06
6.25527e-06
6.24456e-06
6.23704e-06
6.21427e-06
6.21305e-06
6.2134e-06
6.21415e-06
6.20144e-06
6.1962e-06
6.20059e-06
6.20555e-06
6.19906e-06
6.19165e-06
6.19431e-06
6.1937e-06
6.19903e-06
6.20657e-06
6.20814e-06
6.21568e-06
6.21805e-06
6.21905e-06
6.22343e-06
6.23265e-06
6.22561e-06
6.21559e-06
6.21623e-06
6.2223e-06
6.23386e-06
6.24271e-06
6.25492e-06
6.26422e-06
6.26533e-06
6.25839e-06
6.25139e-06
6.35156e-06
6.35288e-06
6.35863e-06
6.36179e-06
6.36314e-06
6.36093e-06
6.35311e-06
6.34173e-06
6.32986e-06
6.3215e-06
6.31519e-06
6.31174e-06
6.3125e-06
6.31199e-06
6.30833e-06
6.29017e-06
6.26571e-06
6.25527e-06
6.25445e-06
6.2431e-06
6.22519e-06
6.21267e-06
6.22748e-06
6.24239e-06
6.25225e-06
6.25074e-06
6.2348e-06
6.22501e-06
6.20506e-06
6.20466e-06
6.20447e-06
6.20504e-06
6.19367e-06
6.18803e-06
6.19115e-06
6.1958e-06
6.19165e-06
6.18472e-06
6.18467e-06
6.18444e-06
6.18774e-06
6.19432e-06
6.19766e-06
6.20225e-06
6.20618e-06
6.20777e-06
6.20984e-06
6.2225e-06
6.2283e-06
6.21922e-06
6.212e-06
6.2102e-06
6.21365e-06
6.21874e-06
6.22533e-06
6.23636e-06
6.24834e-06
6.2549e-06
6.25652e-06
6.35462e-06
6.35496e-06
6.3544e-06
6.34999e-06
6.34243e-06
6.3319e-06
6.32026e-06
6.3124e-06
6.30739e-06
6.30652e-06
6.30969e-06
6.31209e-06
6.31187e-06
6.30464e-06
6.28757e-06
6.26292e-06
6.25027e-06
6.24825e-06
6.2384e-06
6.22277e-06
6.20902e-06
6.21018e-06
6.23168e-06
6.24713e-06
6.25479e-06
6.24588e-06
6.2234e-06
6.21195e-06
6.19522e-06
6.19503e-06
6.19469e-06
6.19486e-06
6.18487e-06
6.17904e-06
6.18104e-06
6.18515e-06
6.18306e-06
6.17676e-06
6.17489e-06
6.1743e-06
6.17592e-06
6.18116e-06
6.18557e-06
6.18913e-06
6.19272e-06
6.19512e-06
6.19608e-06
6.20734e-06
6.22063e-06
6.22427e-06
6.21827e-06
6.20831e-06
6.20271e-06
6.20154e-06
6.20313e-06
6.20754e-06
6.21493e-06
6.22283e-06
6.23325e-06
6.33485e-06
6.3294e-06
6.32286e-06
6.31369e-06
6.30598e-06
6.29987e-06
6.29637e-06
6.29689e-06
6.30137e-06
6.30859e-06
6.3112e-06
6.30866e-06
6.29866e-06
6.28003e-06
6.25639e-06
6.24135e-06
6.23574e-06
6.23052e-06
6.21682e-06
6.20337e-06
6.19892e-06
6.2113e-06
6.2377e-06
6.25175e-06
6.2544e-06
6.23701e-06
6.21024e-06
6.19807e-06
6.18446e-06
6.18445e-06
6.18383e-06
6.18358e-06
6.17482e-06
6.16897e-06
6.16998e-06
6.17346e-06
6.17247e-06
6.1673e-06
6.16446e-06
6.16329e-06
6.16361e-06
6.1672e-06
6.17174e-06
6.17531e-06
6.17833e-06
6.18075e-06
6.18173e-06
6.18691e-06
6.20165e-06
6.21542e-06
6.22052e-06
6.21622e-06
6.205e-06
6.19642e-06
6.19144e-06
6.18949e-06
6.19024e-06
6.19315e-06
6.19835e-06
6.29823e-06
6.2912e-06
6.28778e-06
6.28494e-06
6.28444e-06
6.28672e-06
6.29234e-06
6.30056e-06
6.30584e-06
6.30653e-06
6.30015e-06
6.28665e-06
6.26672e-06
6.24499e-06
6.22967e-06
6.22195e-06
6.21653e-06
6.20738e-06
6.19496e-06
6.18862e-06
6.19532e-06
6.21654e-06
6.243e-06
6.25426e-06
6.24879e-06
6.21988e-06
6.19537e-06
6.18329e-06
6.17254e-06
6.17264e-06
6.17168e-06
6.17104e-06
6.16333e-06
6.15757e-06
6.15774e-06
6.16058e-06
6.16027e-06
6.15616e-06
6.1529e-06
6.15118e-06
6.15056e-06
6.15248e-06
6.15633e-06
6.16003e-06
6.16289e-06
6.16508e-06
6.16623e-06
6.16809e-06
6.17567e-06
6.19087e-06
6.20577e-06
6.21348e-06
6.2119e-06
6.20189e-06
6.19183e-06
6.18428e-06
6.17919e-06
6.17631e-06
6.17549e-06
6.27241e-06
6.26981e-06
6.27229e-06
6.2763e-06
6.28256e-06
6.29035e-06
6.29589e-06
6.29719e-06
6.29251e-06
6.28145e-06
6.26474e-06
6.24503e-06
6.228e-06
6.2142e-06
6.20577e-06
6.19998e-06
6.19277e-06
6.18341e-06
6.17676e-06
6.18002e-06
6.1965e-06
6.22245e-06
6.24598e-06
6.25082e-06
6.23254e-06
6.2e-06
6.1788e-06
6.16746e-06
6.15921e-06
6.15926e-06
6.15802e-06
6.15702e-06
6.15019e-06
6.1446e-06
6.14408e-06
6.14628e-06
6.14639e-06
6.14317e-06
6.13983e-06
6.1377e-06
6.13641e-06
6.1369e-06
6.13953e-06
6.14296e-06
6.14588e-06
6.14798e-06
6.1492e-06
6.14993e-06
6.15266e-06
6.16064e-06
6.17299e-06
6.18851e-06
6.19922e-06
6.20148e-06
6.19631e-06
6.18651e-06
6.178e-06
6.17102e-06
6.16574e-06
6.26072e-06
6.26146e-06
6.26765e-06
6.27286e-06
6.27679e-06
6.27722e-06
6.27277e-06
6.26307e-06
6.24919e-06
6.23365e-06
6.21846e-06
6.20466e-06
6.1941e-06
6.18634e-06
6.1806e-06
6.17467e-06
6.16782e-06
6.16274e-06
6.16448e-06
6.17687e-06
6.199e-06
6.22359e-06
6.23941e-06
6.23339e-06
6.20783e-06
6.17857e-06
6.16048e-06
6.15035e-06
6.14417e-06
6.14406e-06
6.14261e-06
6.14128e-06
6.13518e-06
6.12983e-06
6.12873e-06
6.13032e-06
6.13064e-06
6.12815e-06
6.12493e-06
6.12251e-06
6.12077e-06
6.12017e-06
6.12142e-06
6.12407e-06
6.12686e-06
6.12902e-06
6.13033e-06
6.13084e-06
6.1315e-06
6.13433e-06
6.1406e-06
6.15098e-06
6.16298e-06
6.17414e-06
6.17978e-06
6.17909e-06
6.1741e-06
6.1667e-06
6.16279e-06
6.24072e-06
6.23935e-06
6.24221e-06
6.24087e-06
6.23722e-06
6.2303e-06
6.22091e-06
6.20972e-06
6.19787e-06
6.18672e-06
6.17705e-06
6.16918e-06
6.16311e-06
6.1581e-06
6.15342e-06
6.1488e-06
6.14581e-06
6.14777e-06
6.15771e-06
6.17584e-06
6.19795e-06
6.21571e-06
6.22059e-06
6.20667e-06
6.18046e-06
6.15557e-06
6.14027e-06
6.13163e-06
6.1271e-06
6.12678e-06
6.12515e-06
6.12352e-06
6.11804e-06
6.11295e-06
6.1114e-06
6.1124e-06