/*--------------------------------*- C++ -*----------------------------------*\
| =========                 |                                                 |
| \\      /  F ield         | OpenFOAM: The Open Source CFD Toolbox           |
|  \\    /   O peration     | Version:  2312                                  |
|   \\  /    A nd           | Website:  www.openfoam.com                      |
|    \\/     M anipulation  |                                                 |
\*---------------------------------------------------------------------------*/
FoamFile
{
    version     2.0;
    format      ascii;
    arch        "LSB;label=32;scalar=64";
    class       volScalarField;
    location    "800";
    object      nuTilda;
}
// * * * * * * * * * * * * * * * * * * * * * * * * * * * * * * * * * * * * * //

dimensions      [0 2 -1 0 0 0 0];

internalField   nonuniform List<scalar> 
76025
(
4.03277e-05
4.03158e-05
4.03076e-05
4.03067e-05
4.03213e-05
4.03333e-05
4.03498e-05
4.03615e-05
4.03668e-05
4.03723e-05
4.03802e-05
4.03877e-05
4.03932e-05
4.03899e-05
4.03815e-05
4.0379e-05
4.03766e-05
4.03834e-05
4.03818e-05
4.03771e-05
4.03716e-05
4.03688e-05
4.03743e-05
4.03837e-05
4.03961e-05
4.04087e-05
4.04275e-05
4.0444e-05
4.04604e-05
4.04795e-05
4.04972e-05
4.05073e-05
4.05223e-05
4.05318e-05
4.05429e-05
4.05492e-05
4.05571e-05
4.05727e-05
4.05858e-05
4.05983e-05
4.06097e-05
4.06227e-05
4.06438e-05
4.06605e-05
4.06758e-05
4.06891e-05
4.07048e-05
4.0712e-05
4.07109e-05
4.07007e-05
4.06787e-05
4.06457e-05
4.05999e-05
4.05415e-05
4.04758e-05
4.04069e-05
4.03393e-05
4.02765e-05
4.02193e-05
4.01739e-05
4.01414e-05
4.0106e-05
4.00776e-05
4.00686e-05
4.0068e-05
4.00757e-05
4.00843e-05
4.0069e-05
4.00341e-05
4.03452e-05
4.0337e-05
4.03228e-05
4.03046e-05
4.02995e-05
4.03012e-05
4.0313e-05
4.03289e-05
4.0344e-05
4.03553e-05
4.03641e-05
4.03724e-05
4.03816e-05
4.03884e-05
4.0388e-05
4.03851e-05
4.03788e-05
4.03754e-05
4.0372e-05
4.03684e-05
4.0361e-05
4.03488e-05
4.03403e-05
4.0335e-05
4.03334e-05
4.03329e-05
4.03409e-05
4.03533e-05
4.03664e-05
4.03809e-05
4.03959e-05
4.04094e-05
4.04227e-05
4.04345e-05
4.04451e-05
4.04539e-05
4.04607e-05
4.0467e-05
4.04725e-05
4.04768e-05
4.04796e-05
4.04803e-05
4.04792e-05
4.04755e-05
4.0468e-05
4.04561e-05
4.04392e-05
4.04165e-05
4.03893e-05
4.0354e-05
4.03062e-05
4.02563e-05
4.02087e-05
4.0164e-05
4.01349e-05
4.01156e-05
4.01023e-05
4.0094e-05
4.00901e-05
4.00903e-05
4.00932e-05
4.00973e-05
4.01008e-05
4.01027e-05
4.0103e-05
4.01017e-05
4.00925e-05
4.00695e-05
4.00486e-05
4.03233e-05
4.03337e-05
4.03338e-05
4.03251e-05
4.03127e-05
4.03013e-05
4.02958e-05
4.02991e-05
4.03094e-05
4.03226e-05
4.03353e-05
4.03468e-05
4.03576e-05
4.03683e-05
4.03769e-05
4.03826e-05
4.03842e-05
4.03826e-05
4.0379e-05
4.03744e-05
4.03682e-05
4.03598e-05
4.03507e-05
4.0342e-05
4.03322e-05
4.03154e-05
4.03019e-05
4.02929e-05
4.02877e-05
4.02854e-05
4.02855e-05
4.02873e-05
4.02897e-05
4.0292e-05
4.02938e-05
4.02948e-05
4.02944e-05
4.02925e-05
4.02888e-05
4.02832e-05
4.02756e-05
4.02657e-05
4.02534e-05
4.02387e-05
4.02217e-05
4.02028e-05
4.01824e-05
4.0161e-05
4.01399e-05
4.01198e-05
4.01003e-05
4.00824e-05
4.00763e-05
4.00749e-05
4.00758e-05
4.00787e-05
4.00831e-05
4.00883e-05
4.00939e-05
4.0099e-05
4.01024e-05
4.01031e-05
4.01005e-05
4.00947e-05
4.00859e-05
4.0073e-05
4.00496e-05
4.00143e-05
3.99838e-05
4.02641e-05
4.02882e-05
4.03069e-05
4.03172e-05
4.03185e-05
4.03128e-05
4.03034e-05
4.02949e-05
4.02915e-05
4.02943e-05
4.0302e-05
4.03121e-05
4.03232e-05
4.03347e-05
4.03464e-05
4.03573e-05
4.03666e-05
4.03731e-05
4.03767e-05
4.03776e-05
4.03763e-05
4.03727e-05
4.03673e-05
4.03608e-05
4.03527e-05
4.03419e-05
4.03293e-05
4.03163e-05
4.0304e-05
4.02929e-05
4.02824e-05
4.02695e-05
4.02527e-05
4.02375e-05
4.02246e-05
4.02131e-05
4.02025e-05
4.01923e-05
4.01821e-05
4.01717e-05
4.01608e-05
4.01494e-05
4.01374e-05
4.01253e-05
4.0113e-05
4.01064e-05
4.01035e-05
4.01025e-05
4.01026e-05
4.01035e-05
4.01052e-05
4.01073e-05
4.011e-05
4.01132e-05
4.01166e-05
4.01197e-05
4.01222e-05
4.01236e-05
4.01231e-05
4.01202e-05
4.01139e-05
4.01038e-05
4.00902e-05
4.00734e-05
4.00528e-05
4.00263e-05
3.99894e-05
3.99458e-05
3.99158e-05
4.02049e-05
4.02178e-05
4.02345e-05
4.02573e-05
4.02771e-05
4.02899e-05
4.02947e-05
4.02929e-05
4.02877e-05
4.02828e-05
4.0281e-05
4.0283e-05
4.02884e-05
4.02962e-05
4.03058e-05
4.03165e-05
4.03278e-05
4.03386e-05
4.03483e-05
4.03562e-05
4.03619e-05
4.03653e-05
4.03665e-05
4.03656e-05
4.0363e-05
4.03585e-05
4.03522e-05
4.03443e-05
4.03353e-05
4.03257e-05
4.03155e-05
4.0304e-05
4.02912e-05
4.0278e-05
4.0265e-05
4.02526e-05
4.0241e-05
4.02301e-05
4.02202e-05
4.02112e-05
4.02029e-05
4.01958e-05
4.01897e-05
4.01841e-05
4.01787e-05
4.0174e-05
4.017e-05
4.01669e-05
4.01644e-05
4.01625e-05
4.01609e-05
4.01594e-05
4.01577e-05
4.01554e-05
4.01523e-05
4.01479e-05
4.01418e-05
4.01335e-05
4.01226e-05
4.01085e-05
4.00907e-05
4.00696e-05
4.00455e-05
4.00185e-05
3.99867e-05
3.99485e-05
3.99028e-05
3.98574e-05
3.98318e-05
4.01741e-05
4.01711e-05
4.01741e-05
4.01838e-05
4.0198e-05
4.02172e-05
4.02359e-05
4.02499e-05
4.02578e-05
4.02603e-05
4.02597e-05
4.02584e-05
4.02583e-05
4.02602e-05
4.02644e-05
4.02707e-05
4.02788e-05
4.02882e-05
4.02984e-05
4.03087e-05
4.03184e-05
4.03271e-05
4.03342e-05
4.03396e-05
4.03434e-05
4.03453e-05
4.03455e-05
4.03439e-05
4.03409e-05
4.03366e-05
4.03312e-05
4.03249e-05
4.03176e-05
4.03094e-05
4.03006e-05
4.02916e-05
4.02825e-05
4.02735e-05
4.02649e-05
4.02569e-05
4.02493e-05
4.02424e-05
4.02363e-05
4.02302e-05
4.02242e-05
4.02183e-05
4.02125e-05
4.02067e-05
4.02007e-05
4.01944e-05
4.01876e-05
4.01801e-05
4.01716e-05
4.01618e-05
4.01504e-05
4.01371e-05
4.01217e-05
4.01037e-05
4.00827e-05
4.00585e-05
4.00313e-05
4.00016e-05
3.99696e-05
3.9934e-05
3.9893e-05
3.98471e-05
3.97983e-05
3.97561e-05
3.97303e-05
4.01702e-05
4.01554e-05
4.01437e-05
4.01377e-05
4.01375e-05
4.0143e-05
4.01528e-05
4.01655e-05
4.01811e-05
4.01947e-05
4.02045e-05
4.02106e-05
4.0214e-05
4.02162e-05
4.02183e-05
4.02211e-05
4.02251e-05
4.02305e-05
4.02374e-05
4.02454e-05
4.02542e-05
4.02634e-05
4.02724e-05
4.0281e-05
4.02887e-05
4.02952e-05
4.03004e-05
4.03042e-05
4.03065e-05
4.03075e-05
4.03072e-05
4.03058e-05
4.03033e-05
4.02998e-05
4.02953e-05
4.02901e-05
4.02843e-05
4.02779e-05
4.02714e-05
4.02646e-05
4.02577e-05
4.02509e-05
4.02442e-05
4.0237e-05
4.02292e-05
4.02209e-05
4.0212e-05
4.02025e-05
4.01922e-05
4.01809e-05
4.01685e-05
4.01548e-05
4.01396e-05
4.01226e-05
4.01038e-05
4.00827e-05
4.00594e-05
4.00334e-05
4.00047e-05
3.99733e-05
3.99399e-05
3.99045e-05
3.98665e-05
3.98241e-05
3.97768e-05
3.97277e-05
3.96804e-05
3.96413e-05
3.96085e-05
4.01524e-05
4.01468e-05
4.01296e-05
4.01139e-05
4.0102e-05
4.00947e-05
4.00917e-05
4.00928e-05
4.00976e-05
4.01047e-05
4.01146e-05
4.01254e-05
4.01352e-05
4.01432e-05
4.01492e-05
4.0154e-05
4.01581e-05
4.01622e-05
4.01667e-05
4.01717e-05
4.01776e-05
4.01843e-05
4.01916e-05
4.01993e-05
4.0207e-05
4.02145e-05
4.02215e-05
4.02277e-05
4.0233e-05
4.02373e-05
4.02404e-05
4.02425e-05
4.02434e-05
4.02432e-05
4.0242e-05
4.02397e-05
4.02365e-05
4.02324e-05
4.02276e-05
4.02221e-05
4.02158e-05
4.02091e-05
4.02018e-05
4.01935e-05
4.01841e-05
4.01736e-05
4.01619e-05
4.01491e-05
4.0135e-05
4.01195e-05
4.01024e-05
4.00837e-05
4.00632e-05
4.00408e-05
4.00163e-05
3.99897e-05
3.99609e-05
3.99297e-05
3.98962e-05
3.98608e-05
3.98238e-05
3.97846e-05
3.97416e-05
3.96939e-05
3.96436e-05
3.95949e-05
3.95499e-05
3.95074e-05
3.94602e-05
4.01053e-05
4.01148e-05
4.01125e-05
4.00999e-05
4.00819e-05
4.0066e-05
4.00532e-05
4.00437e-05
4.00376e-05
4.00344e-05
4.00339e-05
4.00356e-05
4.00395e-05
4.00459e-05
4.00532e-05
4.00605e-05
4.00673e-05
4.00732e-05
4.00783e-05
4.00832e-05
4.00879e-05
4.00928e-05
4.00978e-05
4.01032e-05
4.01088e-05
4.01147e-05
4.01205e-05
4.01262e-05
4.01314e-05
4.01362e-05
4.01402e-05
4.01434e-05
4.01456e-05
4.0147e-05
4.01473e-05
4.01465e-05
4.01447e-05
4.01418e-05
4.01379e-05
4.01331e-05
4.01271e-05
4.01204e-05
4.01126e-05
4.01034e-05
4.00927e-05
4.00805e-05
4.00669e-05
4.00517e-05
4.00349e-05
4.00165e-05
3.99964e-05
3.99744e-05
3.99505e-05
3.99248e-05
3.98971e-05
3.98673e-05
3.98354e-05
3.98015e-05
3.97657e-05
3.97282e-05
3.96886e-05
3.96456e-05
3.9598e-05
3.95469e-05
3.94961e-05
3.94484e-05
3.94008e-05
3.93443e-05
3.92765e-05
4.00352e-05
4.00534e-05
4.0063e-05
4.00629e-05
4.00549e-05
4.00416e-05
4.0025e-05
4.00087e-05
3.99946e-05
3.99829e-05
3.99737e-05
3.99667e-05
3.99616e-05
3.99585e-05
3.99573e-05
3.99586e-05
3.99621e-05
3.99666e-05
3.99716e-05
3.99767e-05
3.99816e-05
3.99861e-05
3.99903e-05
3.99945e-05
3.99985e-05
4.00024e-05
4.00063e-05
4.00101e-05
4.00137e-05
4.00169e-05
4.00198e-05
4.00221e-05
4.00237e-05
4.00247e-05
4.00247e-05
4.00239e-05
4.00221e-05
4.00192e-05
4.00153e-05
4.00104e-05
4.00042e-05
3.99971e-05
3.99888e-05
3.99788e-05
3.99671e-05
3.99538e-05
3.99389e-05
3.99223e-05
3.99041e-05
3.98841e-05
3.98623e-05
3.98386e-05
3.98132e-05
3.97858e-05
3.97565e-05
3.97252e-05
3.96918e-05
3.96564e-05
3.9619e-05
3.95793e-05
3.95362e-05
3.94885e-05
3.94367e-05
3.93837e-05
3.93324e-05
3.9281e-05
3.92206e-05
3.91414e-05
3.90427e-05
3.99503e-05
3.9964e-05
3.99726e-05
3.99791e-05
3.9982e-05
3.998e-05
3.99731e-05
3.99622e-05
3.99487e-05
3.99342e-05
3.99204e-05
3.99078e-05
3.98966e-05
3.98869e-05
3.98785e-05
3.98716e-05
3.98665e-05
3.98636e-05
3.98629e-05
3.98637e-05
3.98656e-05
3.98683e-05
3.98712e-05
3.98741e-05
3.98769e-05
3.98795e-05
3.98819e-05
3.98841e-05
3.98859e-05
3.98874e-05
3.98885e-05
3.98891e-05
3.98892e-05
3.98887e-05
3.98875e-05
3.98855e-05
3.98826e-05
3.98788e-05
3.98742e-05
3.98685e-05
3.98615e-05
3.98536e-05
3.98445e-05
3.98337e-05
3.98213e-05
3.98072e-05
3.97914e-05
3.9774e-05
3.97549e-05
3.97341e-05
3.97114e-05
3.96869e-05
3.96606e-05
3.96322e-05
3.96017e-05
3.95689e-05
3.95339e-05
3.94964e-05
3.94561e-05
3.94123e-05
3.93638e-05
3.93109e-05
3.92555e-05
3.92e-05
3.91435e-05
3.90788e-05
3.89947e-05
3.88863e-05
3.87643e-05
3.98607e-05
3.98657e-05
3.98702e-05
3.98747e-05
3.98781e-05
3.98795e-05
3.98785e-05
3.9875e-05
3.9869e-05
3.98605e-05
3.98502e-05
3.98387e-05
3.98267e-05
3.98147e-05
3.98031e-05
3.97921e-05
3.97818e-05
3.97727e-05
3.97649e-05
3.97589e-05
3.97547e-05
3.97519e-05
3.97503e-05
3.97496e-05
3.97497e-05
3.97499e-05
3.97503e-05
3.97506e-05
3.97507e-05
3.97505e-05
3.97499e-05
3.97489e-05
3.97473e-05
3.97452e-05
3.97425e-05
3.9739e-05
3.97347e-05
3.97296e-05
3.97238e-05
3.97168e-05
3.97088e-05
3.96999e-05
3.96898e-05
3.9678e-05
3.96645e-05
3.96495e-05
3.96329e-05
3.96146e-05
3.95946e-05
3.95727e-05
3.9549e-05
3.95232e-05
3.94953e-05
3.94651e-05
3.94322e-05
3.93967e-05
3.93583e-05
3.93167e-05
3.92711e-05
3.92209e-05
3.91659e-05
3.91076e-05
3.90474e-05
3.89845e-05
3.89134e-05
3.88248e-05
3.87114e-05
3.85791e-05
3.84474e-05
3.97633e-05
3.97641e-05
3.97652e-05
3.97666e-05
3.9768e-05
3.97689e-05
3.97687e-05
3.97671e-05
3.97638e-05
3.97588e-05
3.97522e-05
3.9744e-05
3.97347e-05
3.97245e-05
3.97136e-05
3.97022e-05
3.96907e-05
3.96793e-05
3.96682e-05
3.96578e-05
3.96484e-05
3.96402e-05
3.96332e-05
3.96274e-05
3.96225e-05
3.96186e-05
3.96154e-05
3.96126e-05
3.961e-05
3.96074e-05
3.96047e-05
3.96018e-05
3.95984e-05
3.95946e-05
3.95902e-05
3.95851e-05
3.95793e-05
3.95728e-05
3.95655e-05
3.95571e-05
3.95477e-05
3.95374e-05
3.95259e-05
3.95127e-05
3.94978e-05
3.94814e-05
3.94632e-05
3.94433e-05
3.94215e-05
3.93976e-05
3.93715e-05
3.9343e-05
3.93119e-05
3.92779e-05
3.92409e-05
3.92004e-05
3.91563e-05
3.91079e-05
3.90546e-05
3.89966e-05
3.89345e-05
3.88688e-05
3.87985e-05
3.87191e-05
3.86237e-05
3.85061e-05
3.83695e-05
3.82293e-05
3.81249e-05
3.96633e-05
3.96606e-05
3.9658e-05
3.96559e-05
3.9654e-05
3.96521e-05
3.96501e-05
3.96476e-05
3.96444e-05
3.96402e-05
3.96349e-05
3.96285e-05
3.96208e-05
3.96121e-05
3.96024e-05
3.95918e-05
3.95806e-05
3.95687e-05
3.95565e-05
3.95441e-05
3.95318e-05
3.952e-05
3.9509e-05
3.9499e-05
3.94899e-05
3.94816e-05
3.9474e-05
3.94673e-05
3.94612e-05
3.94555e-05
3.94498e-05
3.94443e-05
3.94386e-05
3.94326e-05
3.94261e-05
3.94191e-05
3.94114e-05
3.94031e-05
3.93939e-05
3.93836e-05
3.93723e-05
3.93602e-05
3.93467e-05
3.93314e-05
3.93142e-05
3.92954e-05
3.92746e-05
3.92517e-05
3.92266e-05
3.9199e-05
3.91688e-05
3.91355e-05
3.90991e-05
3.90592e-05
3.90156e-05
3.89678e-05
3.89154e-05
3.88581e-05
3.87957e-05
3.87286e-05
3.86564e-05
3.85774e-05
3.84882e-05
3.83839e-05
3.82611e-05
3.81221e-05
3.79796e-05
3.78571e-05
3.77713e-05
3.9551e-05
3.95464e-05
3.95416e-05
3.95368e-05
3.9532e-05
3.95273e-05
3.95225e-05
3.95177e-05
3.95126e-05
3.95071e-05
3.9501e-05
3.94943e-05
3.94868e-05
3.94784e-05
3.94692e-05
3.9459e-05
3.9448e-05
3.94362e-05
3.94237e-05
3.94104e-05
3.93965e-05
3.93823e-05
3.93677e-05
3.93531e-05
3.9339e-05
3.93258e-05
3.93138e-05
3.93029e-05
3.92927e-05
3.9283e-05
3.92741e-05
3.92655e-05
3.92569e-05
3.92481e-05
3.92392e-05
3.92297e-05
3.92197e-05
3.9209e-05
3.91975e-05
3.91846e-05
3.91708e-05
3.91562e-05
3.91398e-05
3.91213e-05
3.91008e-05
3.90782e-05
3.90533e-05
3.90258e-05
3.89956e-05
3.89623e-05
3.89258e-05
3.88858e-05
3.88419e-05
3.87939e-05
3.87414e-05
3.8684e-05
3.86214e-05
3.85534e-05
3.84797e-05
3.83996e-05
3.83108e-05
3.82104e-05
3.8096e-05
3.79668e-05
3.78261e-05
3.76833e-05
3.75542e-05
3.74463e-05
3.73915e-05
3.9418e-05
3.94125e-05
3.94065e-05
3.94001e-05
3.93935e-05
3.93866e-05
3.93796e-05
3.93724e-05
3.9365e-05
3.93573e-05
3.93493e-05
3.93409e-05
3.9332e-05
3.93225e-05
3.93124e-05
3.93016e-05
3.92901e-05
3.92777e-05
3.92646e-05
3.92507e-05
3.92359e-05
3.92204e-05
3.92042e-05
3.91872e-05
3.91696e-05
3.91514e-05
3.9133e-05
3.91145e-05
3.90966e-05
3.90802e-05
3.90654e-05
3.90516e-05
3.90384e-05
3.90259e-05
3.90136e-05
3.90008e-05
3.89877e-05
3.89742e-05
3.89595e-05
3.89434e-05
3.89266e-05
3.89088e-05
3.88885e-05
3.88655e-05
3.884e-05
3.88119e-05
3.8781e-05
3.8747e-05
3.87097e-05
3.86688e-05
3.86241e-05
3.85752e-05
3.85219e-05
3.84637e-05
3.84003e-05
3.83312e-05
3.82562e-05
3.81746e-05
3.80848e-05
3.79848e-05
3.78726e-05
3.77476e-05
3.76116e-05
3.74692e-05
3.73261e-05
3.71894e-05
3.7064e-05
3.69394e-05
3.68028e-05
3.92573e-05
3.92508e-05
3.92438e-05
3.92363e-05
3.92284e-05
3.92201e-05
3.92115e-05
3.92024e-05
3.9193e-05
3.91833e-05
3.91732e-05
3.91627e-05
3.91517e-05
3.91403e-05
3.91283e-05
3.91158e-05
3.91026e-05
3.90888e-05
3.90742e-05
3.90588e-05
3.90427e-05
3.90257e-05
3.90078e-05
3.8989e-05
3.89694e-05
3.89488e-05
3.89272e-05
3.89048e-05
3.88815e-05
3.88574e-05
3.88326e-05
3.88074e-05
3.87826e-05
3.87594e-05
3.8738e-05
3.87178e-05
3.86985e-05
3.86795e-05
3.86595e-05
3.86389e-05
3.86182e-05
3.85954e-05
3.8569e-05
3.85395e-05
3.85073e-05
3.84722e-05
3.84337e-05
3.83917e-05
3.83459e-05
3.8296e-05
3.82416e-05
3.81823e-05
3.81178e-05
3.80475e-05
3.7971e-05
3.78875e-05
3.77962e-05
3.76952e-05
3.75829e-05
3.74587e-05
3.7324e-05
3.71815e-05
3.70357e-05
3.6889e-05
3.67388e-05
3.65805e-05
3.64017e-05
3.61754e-05
3.58549e-05
3.90601e-05
3.90523e-05
3.9044e-05
3.90353e-05
3.90261e-05
3.90164e-05
3.90063e-05
3.89957e-05
3.89846e-05
3.89731e-05
3.8961e-05
3.89485e-05
3.89354e-05
3.89218e-05
3.89076e-05
3.88928e-05
3.88773e-05
3.88612e-05
3.88444e-05
3.88267e-05
3.88083e-05
3.8789e-05
3.87688e-05
3.87476e-05
3.87254e-05
3.87022e-05
3.86779e-05
3.86523e-05
3.86256e-05
3.85976e-05
3.85683e-05
3.85377e-05
3.85057e-05
3.84723e-05
3.84377e-05
3.8402e-05
3.83657e-05
3.83303e-05
3.82964e-05
3.82652e-05
3.82345e-05
3.82008e-05
3.8164e-05
3.8125e-05
3.80836e-05
3.80392e-05
3.79913e-05
3.79397e-05
3.78837e-05
3.7823e-05
3.77569e-05
3.76851e-05
3.76068e-05
3.75213e-05
3.74277e-05
3.73246e-05
3.7211e-05
3.70859e-05
3.69501e-05
3.68062e-05
3.66571e-05
3.6503e-05
3.63416e-05
3.61651e-05
3.59537e-05
3.56921e-05
3.537e-05
3.49469e-05
3.4353e-05
3.88141e-05
3.88045e-05
3.87944e-05
3.87839e-05
3.8773e-05
3.87616e-05
3.87497e-05
3.87374e-05
3.87244e-05
3.8711e-05
3.86969e-05
3.86822e-05
3.86669e-05
3.8651e-05
3.86343e-05
3.8617e-05
3.85989e-05
3.85801e-05
3.85604e-05
3.85399e-05
3.85185e-05
3.84961e-05
3.84728e-05
3.84483e-05
3.84228e-05
3.8396e-05
3.8368e-05
3.83387e-05
3.8308e-05
3.82757e-05
3.82419e-05
3.82064e-05
3.81691e-05
3.81299e-05
3.80887e-05
3.80454e-05
3.79999e-05
3.79521e-05
3.79019e-05
3.78493e-05
3.77942e-05
3.77363e-05
3.76765e-05
3.76173e-05
3.75589e-05
3.75e-05
3.74388e-05
3.73737e-05
3.73039e-05
3.72285e-05
3.71466e-05
3.70576e-05
3.69604e-05
3.68536e-05
3.67363e-05
3.66082e-05
3.64702e-05
3.63232e-05
3.61686e-05
3.60068e-05
3.58334e-05
3.56373e-05
3.54033e-05
3.51154e-05
3.47509e-05
3.42957e-05
3.37546e-05
3.31112e-05
3.23008e-05
3.84997e-05
3.84879e-05
3.84755e-05
3.84627e-05
3.84495e-05
3.84358e-05
3.84215e-05
3.84068e-05
3.83915e-05
3.83755e-05
3.8359e-05
3.83417e-05
3.83237e-05
3.8305e-05
3.82855e-05
3.82652e-05
3.8244e-05
3.82219e-05
3.81989e-05
3.81748e-05
3.81497e-05
3.81235e-05
3.80962e-05
3.80675e-05
3.80376e-05
3.80063e-05
3.79735e-05
3.79392e-05
3.79032e-05
3.78654e-05
3.78257e-05
3.7784e-05
3.77402e-05
3.76941e-05
3.76455e-05
3.75943e-05
3.75403e-05
3.74832e-05
3.74229e-05
3.73591e-05
3.72915e-05
3.72198e-05
3.71436e-05
3.70628e-05
3.69768e-05
3.68857e-05
3.67898e-05
3.66917e-05
3.65926e-05
3.64901e-05
3.63817e-05
3.62653e-05
3.61393e-05
3.60029e-05
3.58575e-05
3.57044e-05
3.55427e-05
3.5369e-05
3.51784e-05
3.49596e-05
3.46932e-05
3.43669e-05
3.39723e-05
3.34889e-05
3.28883e-05
3.22493e-05
3.15778e-05
3.07749e-05
2.97765e-05
3.80855e-05
3.8071e-05
3.80559e-05
3.80402e-05
3.8024e-05
3.80073e-05
3.799e-05
3.79721e-05
3.79536e-05
3.79344e-05
3.79144e-05
3.78937e-05
3.78722e-05
3.78499e-05
3.78266e-05
3.78024e-05
3.77772e-05
3.77509e-05
3.77235e-05
3.76949e-05
3.76651e-05
3.76339e-05
3.76013e-05
3.75673e-05
3.75316e-05
3.74943e-05
3.74552e-05
3.74142e-05
3.73712e-05
3.73261e-05
3.72786e-05
3.72286e-05
3.7176e-05
3.71206e-05
3.70621e-05
3.70003e-05
3.6935e-05
3.68658e-05
3.67926e-05
3.67148e-05
3.66323e-05
3.65445e-05
3.64509e-05
3.6351e-05
3.62444e-05
3.61302e-05
3.6008e-05
3.5877e-05
3.57365e-05
3.55854e-05
3.54247e-05
3.52576e-05
3.50877e-05
3.49158e-05
3.47387e-05
3.45484e-05
3.4331e-05
3.40716e-05
3.3763e-05
3.33981e-05
3.29527e-05
3.24102e-05
3.1804e-05
3.11816e-05
3.05111e-05
2.97852e-05
2.90039e-05
2.82207e-05
2.75192e-05
3.75199e-05
3.7502e-05
3.74834e-05
3.74641e-05
3.74442e-05
3.74236e-05
3.74024e-05
3.73804e-05
3.73576e-05
3.7334e-05
3.73096e-05
3.72843e-05
3.7258e-05
3.72307e-05
3.72023e-05
3.71728e-05
3.71422e-05
3.71102e-05
3.70769e-05
3.70421e-05
3.70059e-05
3.6968e-05
3.69284e-05
3.6887e-05
3.68437e-05
3.67983e-05
3.67506e-05
3.67006e-05
3.66481e-05
3.65929e-05
3.65348e-05
3.64736e-05
3.6409e-05
3.63408e-05
3.62687e-05
3.61924e-05
3.61115e-05
3.60258e-05
3.59346e-05
3.58378e-05
3.57346e-05
3.56246e-05
3.55069e-05
3.5381e-05
3.52461e-05
3.51015e-05
3.49461e-05
3.47789e-05
3.45985e-05
3.44041e-05
3.41946e-05
3.39641e-05
3.37247e-05
3.34819e-05
3.32174e-05
3.29138e-05
3.25527e-05
3.2113e-05
3.15887e-05
3.10172e-05
3.04171e-05
2.98259e-05
2.91858e-05
2.85015e-05
2.78244e-05
2.72513e-05
2.68147e-05
2.66812e-05
2.70203e-05
3.67143e-05
3.66917e-05
3.66683e-05
3.66442e-05
3.66193e-05
3.65935e-05
3.65669e-05
3.65393e-05
3.65109e-05
3.64814e-05
3.64508e-05
3.64192e-05
3.63863e-05
3.63523e-05
3.63168e-05
3.628e-05
3.62417e-05
3.62019e-05
3.61603e-05
3.6117e-05
3.60718e-05
3.60246e-05
3.59752e-05
3.59236e-05
3.58694e-05
3.58127e-05
3.57531e-05
3.56906e-05
3.56248e-05
3.55555e-05
3.54825e-05
3.54054e-05
3.5324e-05
3.52379e-05
3.51467e-05
3.50499e-05
3.49472e-05
3.48379e-05
3.47218e-05
3.4598e-05
3.44659e-05
3.43246e-05
3.41732e-05
3.40108e-05
3.38362e-05
3.36483e-05
3.34455e-05
3.32252e-05
3.29852e-05
3.2724e-05
3.24381e-05
3.21196e-05
3.17599e-05
3.13562e-05
3.09092e-05
3.04151e-05
2.98678e-05
2.92989e-05
2.87607e-05
2.81946e-05
2.75928e-05
2.7012e-05
2.65116e-05
2.61249e-05
2.59534e-05
2.62199e-05
2.68554e-05
2.79571e-05
2.95337e-05
3.55075e-05
3.54782e-05
3.54481e-05
3.5417e-05
3.5385e-05
3.5352e-05
3.53178e-05
3.52826e-05
3.52462e-05
3.52085e-05
3.51694e-05
3.5129e-05
3.50871e-05
3.50436e-05
3.49984e-05
3.49514e-05
3.49026e-05
3.48517e-05
3.47988e-05
3.47435e-05
3.46859e-05
3.46257e-05
3.45627e-05
3.44968e-05
3.44277e-05
3.43553e-05
3.42792e-05
3.41992e-05
3.41151e-05
3.40264e-05
3.39328e-05
3.38339e-05
3.37294e-05
3.36186e-05
3.35012e-05
3.33764e-05
3.32437e-05
3.31025e-05
3.2952e-05
3.2791e-05
3.26185e-05
3.2433e-05
3.22332e-05
3.20176e-05
3.1784e-05
3.15298e-05
3.1251e-05
3.09438e-05
3.0606e-05
3.02354e-05
2.98248e-05
2.93666e-05
2.88648e-05
2.83293e-05
2.77794e-05
2.72659e-05
2.67477e-05
2.62537e-05
2.58322e-05
2.54685e-05
2.5159e-05
2.5093e-05
2.54088e-05
2.60658e-05
2.70782e-05
2.84428e-05
3.01124e-05
3.21727e-05
3.46009e-05
3.35951e-05
3.35563e-05
3.35165e-05
3.34757e-05
3.34337e-05
3.33904e-05
3.33458e-05
3.32998e-05
3.32522e-05
3.32031e-05
3.31524e-05
3.30998e-05
3.30453e-05
3.29889e-05
3.29304e-05
3.28696e-05
3.28064e-05
3.27406e-05
3.26722e-05
3.26009e-05
3.25265e-05
3.24488e-05
3.23676e-05
3.22827e-05
3.21937e-05
3.21004e-05
3.20024e-05
3.18995e-05
3.17911e-05
3.16769e-05
3.15564e-05
3.14291e-05
3.12944e-05
3.11517e-05
3.10003e-05
3.08395e-05
3.06684e-05
3.04857e-05
3.02895e-05
3.00783e-05
2.98499e-05
2.96021e-05
2.93332e-05
2.90412e-05
2.87221e-05
2.83725e-05
2.79894e-05
2.75747e-05
2.71384e-05
2.66838e-05
2.61971e-05
2.56861e-05
2.52485e-05
2.49017e-05
2.4591e-05
2.4288e-05
2.40819e-05
2.40555e-05
2.43322e-05
2.48455e-05
2.5606e-05
2.66206e-05
2.78935e-05
2.94175e-05
3.11737e-05
3.31362e-05
3.52761e-05
3.76749e-05
4.02609e-05
3.04166e-05
3.03659e-05
3.03143e-05
3.02615e-05
3.02073e-05
3.01517e-05
3.00945e-05
3.00357e-05
2.99752e-05
2.99128e-05
2.98484e-05
2.9782e-05
2.97133e-05
2.96423e-05
2.95689e-05
2.94928e-05
2.94139e-05
2.93321e-05
2.92471e-05
2.91587e-05
2.90667e-05
2.89708e-05
2.88709e-05
2.87665e-05
2.86575e-05
2.85433e-05
2.84238e-05
2.82984e-05
2.81667e-05
2.80282e-05
2.78825e-05
2.77289e-05
2.75666e-05
2.73953e-05
2.72148e-05
2.70206e-05
2.68109e-05
2.65845e-05
2.63406e-05
2.6078e-05
2.57961e-05
2.54963e-05
2.51796e-05
2.48448e-05
2.44975e-05
2.41537e-05
2.38231e-05
2.35171e-05
2.32525e-05
2.30429e-05
2.28839e-05
2.27791e-05
2.28345e-05
2.3104e-05
2.35201e-05
2.40863e-05
2.4806e-05
2.56792e-05
2.67066e-05
2.78823e-05
2.91956e-05
3.06334e-05
3.21859e-05
3.38454e-05
3.55982e-05
3.74294e-05
3.93351e-05
4.13472e-05
4.32993e-05
2.50837e-05
2.5026e-05
2.49681e-05
2.49095e-05
2.485e-05
2.47897e-05
2.47283e-05
2.46658e-05
2.46022e-05
2.45372e-05
2.44709e-05
2.44031e-05
2.43336e-05
2.42624e-05
2.41894e-05
2.41143e-05
2.40371e-05
2.39575e-05
2.38755e-05
2.37909e-05
2.37035e-05
2.3613e-05
2.35193e-05
2.34222e-05
2.33213e-05
2.32166e-05
2.31075e-05
2.29941e-05
2.28759e-05
2.27526e-05
2.26241e-05
2.249e-05
2.235e-05
2.22048e-05
2.20547e-05
2.19041e-05
2.17557e-05
2.16124e-05
2.14766e-05
2.135e-05
2.12384e-05
2.11551e-05
2.10951e-05
2.10302e-05
2.10382e-05
2.12337e-05
2.15109e-05
2.18549e-05
2.22659e-05
2.27465e-05
2.32981e-05
2.39181e-05
2.46022e-05
2.53478e-05
2.61489e-05
2.69981e-05
2.78882e-05
2.88122e-05
2.97632e-05
3.07348e-05
3.17245e-05
3.27356e-05
3.3784e-05
3.48803e-05
3.60062e-05
3.71097e-05
3.8118e-05
3.89286e-05
3.92984e-05
1.72167e-05
1.72674e-05
1.73249e-05
1.73944e-05
1.74743e-05
1.75617e-05
1.7654e-05
1.77492e-05
1.78461e-05
1.79434e-05
1.80407e-05
1.81372e-05
1.82327e-05
1.83268e-05
1.84195e-05
1.85104e-05
1.85997e-05
1.86872e-05
1.8773e-05
1.88572e-05
1.89397e-05
1.90206e-05
1.91002e-05
1.91785e-05
1.92555e-05
1.93316e-05
1.94077e-05
1.94817e-05
1.95565e-05
1.96422e-05
1.97417e-05
1.98563e-05
1.99868e-05
2.01336e-05
2.02976e-05
2.04793e-05
2.06795e-05
2.08987e-05
2.11374e-05
2.13953e-05
2.16721e-05
2.19676e-05
2.22809e-05
2.26084e-05
2.29469e-05
2.32949e-05
2.36484e-05
2.40018e-05
2.43488e-05
2.46828e-05
2.49973e-05
2.52862e-05
2.55446e-05
2.57698e-05
2.59614e-05
2.61227e-05
2.6259e-05
2.63758e-05
2.64764e-05
2.65592e-05
2.66413e-05
2.6756e-05
2.69487e-05
2.72298e-05
2.74967e-05
2.75323e-05
2.70428e-05
2.56776e-05
2.36271e-05
1.50902e-05
1.52328e-05
1.53777e-05
1.55254e-05
1.56763e-05
1.58299e-05
1.59859e-05
1.61439e-05
1.63032e-05
1.64635e-05
1.66243e-05
1.6785e-05
1.69452e-05
1.71045e-05
1.72624e-05
1.74186e-05
1.75728e-05
1.77244e-05
1.78732e-05
1.80189e-05
1.8161e-05
1.82992e-05
1.84333e-05
1.85626e-05
1.86871e-05
1.88061e-05
1.89186e-05
1.90256e-05
1.91236e-05
1.92027e-05
1.92627e-05
1.93043e-05
1.93285e-05
1.9335e-05
1.93234e-05
1.92926e-05
1.92415e-05
1.91682e-05
1.90709e-05
1.89472e-05
1.87946e-05
1.86102e-05
1.83911e-05
1.81343e-05
1.78368e-05
1.74958e-05
1.71088e-05
1.66742e-05
1.61914e-05
1.56611e-05
1.50856e-05
1.44697e-05
1.38205e-05
1.31485e-05
1.24669e-05
1.17884e-05
1.1117e-05
1.04305e-05
9.67565e-06
8.84747e-06
8.12461e-06
7.43117e-06
6.91705e-06
6.41336e-06
6.43975e-06
6.50742e-06
6.41308e-06
6.04879e-06
5.75532e-06
4.05284e-05
4.05207e-05
4.05193e-05
4.05224e-05
4.05308e-05
4.0543e-05
4.05478e-05
4.05441e-05
4.05309e-05
4.05122e-05
4.04962e-05
4.04782e-05
4.04593e-05
4.04457e-05
4.04499e-05
4.04484e-05
4.04085e-05
4.03705e-05
4.03501e-05
4.03526e-05
4.03283e-05
4.02782e-05
4.03016e-05
4.03199e-05
4.03348e-05
4.03456e-05
4.03261e-05
4.03123e-05
4.02707e-05
4.02684e-05
4.02691e-05
4.02704e-05
4.02472e-05
4.02375e-05
4.02456e-05
4.02547e-05
4.02428e-05
4.02292e-05
4.02341e-05
4.02329e-05
4.02427e-05
4.02565e-05
4.02594e-05
4.02732e-05
4.02776e-05
4.02794e-05
4.02874e-05
4.03043e-05
4.02914e-05
4.02731e-05
4.02743e-05
4.02854e-05
4.03065e-05
4.03227e-05
4.0345e-05
4.0362e-05
4.0364e-05
4.03513e-05
4.03386e-05
4.05205e-05
4.05229e-05
4.05333e-05
4.0539e-05
4.05414e-05
4.05374e-05
4.05233e-05
4.05027e-05
4.04812e-05
4.04661e-05
4.04546e-05
4.04484e-05
4.04498e-05
4.04488e-05
4.04422e-05
4.04092e-05
4.03647e-05
4.03456e-05
4.03441e-05
4.03234e-05
4.02907e-05
4.02677e-05
4.02949e-05
4.03221e-05
4.03401e-05
4.03374e-05
4.03082e-05
4.02903e-05
4.02538e-05
4.0253e-05
4.02527e-05
4.02537e-05
4.02329e-05
4.02225e-05
4.02283e-05
4.02368e-05
4.02292e-05
4.02164e-05
4.02164e-05
4.02159e-05
4.0222e-05
4.02341e-05
4.02402e-05
4.02486e-05
4.02558e-05
4.02588e-05
4.02625e-05
4.02857e-05
4.02963e-05
4.02797e-05
4.02665e-05
4.02632e-05
4.02695e-05
4.02789e-05
4.02909e-05
4.03111e-05
4.0333e-05
4.0345e-05
4.03479e-05
4.0526e-05
4.05266e-05
4.05256e-05
4.05177e-05
4.0504e-05
4.04849e-05
4.04638e-05
4.04496e-05
4.04405e-05
4.04389e-05
4.04447e-05
4.0449e-05
4.04486e-05
4.04355e-05
4.04045e-05
4.03596e-05
4.03365e-05
4.03328e-05
4.03148e-05
4.02862e-05
4.02611e-05
4.02632e-05
4.03025e-05
4.03308e-05
4.03448e-05
4.03285e-05
4.02874e-05
4.02664e-05
4.02357e-05
4.02354e-05
4.02348e-05
4.02351e-05
4.02167e-05
4.0206e-05
4.02097e-05
4.02172e-05
4.02134e-05
4.02018e-05
4.01984e-05
4.01973e-05
4.02003e-05
4.02099e-05
4.0218e-05
4.02245e-05
4.02311e-05
4.02355e-05
4.02373e-05
4.0258e-05
4.02823e-05
4.0289e-05
4.0278e-05
4.02598e-05
4.02495e-05
4.02473e-05
4.02503e-05
4.02583e-05
4.02719e-05
4.02863e-05
4.03054e-05
4.04903e-05
4.04804e-05
4.04686e-05
4.04519e-05
4.04379e-05
4.04268e-05
4.04205e-05
4.04214e-05
4.04296e-05
4.04427e-05
4.04474e-05
4.04428e-05
4.04246e-05
4.03907e-05
4.03477e-05
4.03202e-05
4.031e-05
4.03004e-05
4.02753e-05
4.02507e-05
4.02425e-05
4.02652e-05
4.03135e-05
4.03392e-05
4.0344e-05
4.03123e-05
4.02633e-05
4.0241e-05
4.0216e-05
4.0216e-05
4.02148e-05
4.02144e-05
4.01983e-05
4.01875e-05
4.01893e-05
4.01958e-05
4.01939e-05
4.01844e-05
4.01792e-05
4.0177e-05
4.01776e-05
4.01842e-05
4.01926e-05
4.01991e-05
4.02047e-05
4.02092e-05
4.0211e-05
4.02205e-05
4.02475e-05
4.02728e-05
4.02821e-05
4.02742e-05
4.02537e-05
4.02379e-05
4.02288e-05
4.02252e-05
4.02266e-05
4.02319e-05
4.02415e-05
4.04239e-05
4.04111e-05
4.04049e-05
4.03997e-05
4.03988e-05
4.04029e-05
4.04131e-05
4.04281e-05
4.04377e-05
4.04389e-05
4.04273e-05
4.04028e-05
4.03665e-05
4.03269e-05
4.02989e-05
4.02847e-05
4.02748e-05
4.0258e-05
4.02352e-05
4.02236e-05
4.02359e-05
4.02748e-05
4.03232e-05
4.03438e-05
4.03338e-05
4.02809e-05
4.0236e-05
4.02138e-05
4.01941e-05
4.01942e-05
4.01925e-05
4.01913e-05
4.01771e-05
4.01665e-05
4.01668e-05
4.0172e-05
4.01715e-05
4.01639e-05
4.01579e-05
4.01547e-05
4.01536e-05
4.01571e-05
4.01642e-05
4.0171e-05
4.01763e-05
4.01803e-05
4.01824e-05
4.01859e-05
4.01998e-05
4.02278e-05
4.02551e-05
4.02692e-05
4.02663e-05
4.0248e-05
4.02295e-05
4.02156e-05
4.02063e-05
4.0201e-05
4.01995e-05
4.03769e-05
4.03721e-05
4.03767e-05
4.0384e-05
4.03954e-05
4.04095e-05
4.04196e-05
4.0422e-05
4.04135e-05
4.03933e-05
4.03629e-05
4.03269e-05
4.02958e-05
4.02705e-05
4.02551e-05
4.02445e-05
4.02312e-05
4.0214e-05
4.02018e-05
4.02078e-05
4.02381e-05
4.02856e-05
4.03287e-05
4.03375e-05
4.03041e-05
4.02445e-05
4.02056e-05
4.01847e-05
4.01695e-05
4.01696e-05
4.01673e-05
4.01655e-05
4.01529e-05
4.01426e-05
4.01416e-05
4.01457e-05
4.01459e-05
4.01399e-05
4.01338e-05
4.01298e-05
4.01275e-05
4.01284e-05
4.01332e-05
4.01396e-05
4.01449e-05
4.01488e-05
4.01511e-05
4.01524e-05
4.01574e-05
4.01721e-05
4.01949e-05
4.02234e-05
4.02431e-05
4.02472e-05
4.02377e-05
4.02197e-05
4.02041e-05
4.01913e-05
4.01815e-05
4.03556e-05
4.03569e-05
4.03682e-05
4.03777e-05
4.03849e-05
4.03856e-05
4.03775e-05
4.03599e-05
4.03345e-05
4.03061e-05
4.02783e-05
4.0253e-05
4.02337e-05
4.02194e-05
4.02089e-05
4.0198e-05
4.01854e-05
4.0176e-05
4.01792e-05
4.0202e-05
4.02427e-05
4.02877e-05
4.03167e-05
4.03057e-05
4.02589e-05
4.02051e-05
4.01718e-05
4.01532e-05
4.01418e-05
4.01416e-05
4.01389e-05
4.01364e-05
4.01252e-05
4.01153e-05
4.01133e-05
4.01162e-05
4.01168e-05
4.01122e-05
4.01063e-05
4.01018e-05
4.00986e-05
4.00974e-05
4.00998e-05
4.01046e-05
4.01098e-05
4.01138e-05
4.01162e-05
4.01172e-05
4.01184e-05
4.01236e-05
4.01352e-05
4.01543e-05
4.01765e-05
4.0197e-05
4.02074e-05
4.02061e-05
4.01969e-05
4.01833e-05
4.01761e-05
4.03191e-05
4.03166e-05
4.03218e-05
4.03193e-05
4.03127e-05
4.03e-05
4.02828e-05
4.02623e-05
4.02406e-05
4.02201e-05
4.02024e-05
4.01879e-05
4.01767e-05
4.01675e-05
4.01588e-05
4.01503e-05
4.01448e-05
4.01484e-05
4.01667e-05
4.02001e-05
4.02407e-05
4.02733e-05
4.02822e-05
4.02567e-05
4.02086e-05
4.01628e-05
4.01346e-05
4.01186e-05
4.01103e-05
4.01097e-05
4.01067e-05