/*--------------------------------*- C++ -*----------------------------------*\
| =========                 |                                                 |
| \\      /  F ield         | OpenFOAM: The Open Source CFD Toolbox           |
|  \\    /   O peration     | Version:  2312                                  |
|   \\  /    A nd           | Website:  www.openfoam.com                      |
|    \\/     M anipulation  |                                                 |
\*---------------------------------------------------------------------------*/
FoamFile
{
    version     2.0;
    format      ascii;
    arch        "LSB;label=32;scalar=64";
    class       volScalarField;
    location    "800";
    object      p;
}
// * * * * * * * * * * * * * * * * * * * * * * * * * * * * * * * * * * * * * //

dimensions      [0 2 -2 0 0 0 0];

internalField   nonuniform List<scalar> 
76025
(
3.45694e-05
2.4994e-05
1.52847e-05
5.42782e-06
-4.43366e-06
-1.44776e-05
-2.47946e-05
-3.48729e-05
-4.5252e-05
-5.56502e-05
-6.61021e-05
-7.6586e-05
-8.70902e-05
-9.751e-05
-0.000108125
-0.000118654
-0.000129085
-0.000139626
-0.000150155
-0.000160537
-0.000170806
-0.000181292
-0.000191534
-0.000201492
-0.000211322
-0.00022088
-0.000230581
-0.000240153
-0.000249101
-0.000258496
-0.000267693
-0.000275976
-0.000284014
-0.000291736
-0.000299302
-0.0003067
-0.000313546
-0.000320557
-0.000326746
-0.000332434
-0.000337643
-0.00034246
-0.000347326
-0.000351251
-0.000354798
-0.000357829
-0.000360711
-0.000362792
-0.000364137
-0.000365312
-0.000366145
-0.000366341
-0.000366008
-0.000365175
-0.000363792
-0.00036127
-0.000359081
-0.00035583
-0.000352236
-0.000348559
-0.000344525
-0.000339334
-0.000333486
-0.000328027
-0.000322072
-0.000314622
-0.000308167
-0.000301612
-0.00029196
3.44509e-05
2.43791e-05
1.42694e-05
3.97518e-06
-6.48676e-06
-1.71157e-05
-2.78047e-05
-3.85702e-05
-4.94426e-05
-6.03644e-05
-7.13223e-05
-8.23013e-05
-9.33205e-05
-0.000104371
-0.000115415
-0.000126429
-0.000137509
-0.000148513
-0.000159581
-0.000170543
-0.000181517
-0.000192353
-0.000203015
-0.000213469
-0.00022381
-0.000234058
-0.00024419
-0.000254053
-0.000263724
-0.000273212
-0.000282405
-0.000291372
-0.000300029
-0.000308325
-0.000316451
-0.000324235
-0.000331673
-0.000338707
-0.000345213
-0.000351359
-0.000357083
-0.000362456
-0.000367416
-0.000371751
-0.000375673
-0.000379139
-0.000382193
-0.000384592
-0.000386443
-0.000387956
-0.000389078
-0.000389642
-0.000389649
-0.000389122
-0.000388006
-0.000386241
-0.000384175
-0.000381511
-0.000378397
-0.000374892
-0.000371022
-0.000366434
-0.00036121
-0.000355808
-0.000350018
-0.00034353
-0.000337105
-0.000330316
-0.000322193
3.35489e-05
2.30026e-05
1.24074e-05
1.58803e-06
-9.45166e-06
-2.06249e-05
-3.1895e-05
-4.32567e-05
-5.4687e-05
-6.61716e-05
-7.76976e-05
-8.92664e-05
-0.000100888
-0.000112544
-0.000124189
-0.000135842
-0.000147476
-0.000159084
-0.000170664
-0.000182206
-0.000193662
-0.000204985
-0.000216175
-0.000227228
-0.000238151
-0.000248936
-0.000259522
-0.000269897
-0.000280066
-0.000289981
-0.000299671
-0.000309123
-0.000318253
-0.000327058
-0.00033555
-0.000343686
-0.000351437
-0.000358786
-0.000365739
-0.000372295
-0.00037842
-0.000384098
-0.000389315
-0.000394045
-0.000398309
-0.000402096
-0.000405413
-0.000408216
-0.000410518
-0.00041237
-0.000413775
-0.000414669
-0.000415029
-0.000414854
-0.000414138
-0.000412865
-0.000411127
-0.000408895
-0.000406181
-0.000403029
-0.000399428
-0.000395274
-0.000390587
-0.000385534
-0.000380115
-0.000374154
-0.000367933
-0.000361345
-0.000353824
3.23293e-05
2.12376e-05
1.0071e-05
-1.33624e-06
-1.29684e-05
-2.47549e-05
-3.66367e-05
-4.8586e-05
-6.05939e-05
-7.26651e-05
-8.47992e-05
-9.69909e-05
-0.000109228
-0.000121489
-0.000133749
-0.000145996
-0.000158216
-0.000170404
-0.000182546
-0.000194625
-0.000206614
-0.000218494
-0.000230254
-0.000241876
-0.00025334
-0.000264633
-0.000275733
-0.000286625
-0.000297285
-0.000307699
-0.000317857
-0.000327733
-0.000337297
-0.000346531
-0.000355418
-0.000363946
-0.000372097
-0.000379861
-0.000387219
-0.000394146
-0.000400626
-0.000406649
-0.000412216
-0.000417315
-0.000421943
-0.000426099
-0.000429787
-0.000432991
-0.0004357
-0.000437928
-0.000439684
-0.000440944
-0.000441684
-0.000441897
-0.00044158
-0.000440738
-0.000439403
-0.000437585
-0.000435288
-0.000432526
-0.000429299
-0.000425578
-0.000421368
-0.000416751
-0.000411714
-0.000406215
-0.000400395
-0.000394165
-0.000387119
3.101e-05
1.93286e-05
7.56457e-06
-4.45155e-06
-1.6699e-05
-2.91089e-05
-4.16125e-05
-5.41773e-05
-6.68038e-05
-7.95011e-05
-9.22683e-05
-0.000105092
-0.000117952
-0.000130828
-0.000143703
-0.000156563
-0.000169398
-0.000182197
-0.000194944
-0.000207621
-0.000220208
-0.000232687
-0.000245036
-0.000257236
-0.000269269
-0.000281118
-0.000292768
-0.000304196
-0.000315385
-0.000326318
-0.000336977
-0.000347341
-0.000357391
-0.000367106
-0.000376469
-0.000385463
-0.000394069
-0.00040227
-0.000410045
-0.000417382
-0.000424269
-0.000430697
-0.00043666
-0.000442154
-0.000447175
-0.000451722
-0.000455792
-0.000459378
-0.000462473
-0.000465081
-0.000467204
-0.000468832
-0.000469951
-0.000470552
-0.000470639
-0.000470215
-0.000469298
-0.000467898
-0.000466023
-0.000463678
-0.00046087
-0.000457592
-0.000453856
-0.000449707
-0.000445096
-0.000440089
-0.000434718
-0.000428991
-0.00042272
2.95053e-05
1.72026e-05
4.81686e-06
-7.83247e-06
-2.07226e-05
-3.37816e-05
-4.69387e-05
-6.01607e-05
-7.34484e-05
-8.68096e-05
-0.000100241
-0.000113728
-0.000127249
-0.000140785
-0.000154321
-0.000167843
-0.000181339
-0.000194794
-0.00020819
-0.000221509
-0.000234731
-0.000247836
-0.000260803
-0.000273614
-0.00028625
-0.000298693
-0.000310924
-0.000322924
-0.000334676
-0.000346159
-0.000357353
-0.000368238
-0.000378797
-0.000389012
-0.000398861
-0.000408325
-0.000417384
-0.000426024
-0.000434231
-0.000441994
-0.000449302
-0.000456142
-0.000462506
-0.000468396
-0.000473812
-0.00047875
-0.000483209
-0.000487186
-0.000490677
-0.00049368
-0.000496195
-0.000498214
-0.000499732
-0.000500743
-0.000501249
-0.000501256
-0.000500773
-0.000499812
-0.000498381
-0.000496487
-0.000494136
-0.000491333
-0.000488099
-0.000484439
-0.000480298
-0.000475815
-0.000470898
-0.000465713
-0.000460077
2.76986e-05
1.4742e-05
1.69822e-06
-1.16233e-05
-2.51972e-05
-3.89473e-05
-5.28003e-05
-6.67205e-05
-8.07078e-05
-9.47699e-05
-0.000108904
-0.000123094
-0.000137319
-0.000151559
-0.000165798
-0.00018002
-0.00019421
-0.000208351
-0.000222426
-0.000236414
-0.000250297
-0.000264055
-0.000277668
-0.000291116
-0.00030438
-0.000317441
-0.000330278
-0.000342874
-0.000355207
-0.000367257
-0.000379003
-0.000390427
-0.000401515
-0.000412245
-0.000422597
-0.000432548
-0.000442083
-0.000451189
-0.000459854
-0.000468066
-0.000475812
-0.000483081
-0.000489866
-0.000496171
-0.000501998
-0.000507346
-0.000512214
-0.000516599
-0.000520499
-0.000523911
-0.000526832
-0.00052926
-0.000531191
-0.000532624
-0.000533562
-0.000534011
-0.000533979
-0.000533478
-0.000532514
-0.000531098
-0.00052924
-0.000526951
-0.000524248
-0.0005211
-0.0005175
-0.000513574
-0.000509137
-0.000504517
-0.000499268
2.55446e-05
1.1898e-05
-1.84318e-06
-1.58784e-05
-3.01787e-05
-4.46627e-05
-5.92528e-05
-7.39112e-05
-8.86369e-05
-0.000103439
-0.000118313
-0.000133245
-0.000148212
-0.000163192
-0.000178166
-0.000193119
-0.000208033
-0.000222892
-0.000237677
-0.000252368
-0.000266946
-0.00028139
-0.00029568
-0.000309796
-0.000323717
-0.000337424
-0.000350895
-0.000364111
-0.000377051
-0.000389694
-0.000402019
-0.00041401
-0.000425652
-0.000436922
-0.000447797
-0.000458258
-0.000468289
-0.00047788
-0.000487018
-0.000495693
-0.00050389
-0.000511601
-0.000518821
-0.000525556
-0.000531809
-0.00053758
-0.00054287
-0.000547675
-0.000551995
-0.000555828
-0.000559172
-0.000562025
-0.000564388
-0.000566262
-0.00056765
-0.00056856
-0.000569001
-0.000568982
-0.000568515
-0.000567611
-0.000566282
-0.000564547
-0.000562403
-0.000559816
-0.000556849
-0.000553539
-0.000549726
-0.000545755
-0.000540745
2.30037e-05
8.62751e-06
-5.85117e-06
-2.0641e-05
-3.57089e-05
-5.09685e-05
-6.63378e-05
-8.17765e-05
-9.72833e-05
-0.000112867
-0.000128524
-0.000144239
-0.000159987
-0.000175745
-0.000191494
-0.000207216
-0.000222894
-0.00023851
-0.000254045
-0.000269478
-0.000284789
-0.000299957
-0.000314961
-0.000329779
-0.00034439
-0.000358774
-0.000372909
-0.000386773
-0.000400347
-0.000413609
-0.000426539
-0.000439121
-0.000451337
-0.000463164
-0.00047458
-0.000485567
-0.000496113
-0.000506205
-0.000515834
-0.000524987
-0.000533653
-0.000541822
-0.000549493
-0.000556672
-0.000563366
-0.000569575
-0.000575299
-0.000580539
-0.000585294
-0.000589563
-0.000593345
-0.000596641
-0.000599454
-0.000601786
-0.000603643
-0.000605034
-0.000605969
-0.000606459
-0.000606516
-0.000606157
-0.000605395
-0.000604245
-0.000602689
-0.000600742
-0.000598481
-0.000595879
-0.000592911
-0.000589742
-0.00058566
1.99988e-05
4.85003e-06
-1.04085e-05
-2.59958e-05
-4.18748e-05
-5.7954e-05
-7.41474e-05
-9.04119e-05
-0.000106745
-0.000123157
-0.000139642
-0.000156185
-0.000172759
-0.00018934
-0.000205908
-0.000222443
-0.000238928
-0.000255343
-0.00027167
-0.000287886
-0.000303969
-0.000319898
-0.00033565
-0.000351204
-0.000366538
-0.000381629
-0.000396456
-0.000410998
-0.000425233
-0.000439138
-0.000452697
-0.000465892
-0.000478704
-0.000491108
-0.000503085
-0.000514619
-0.000525697
-0.00053631
-0.000546446
-0.000556093
-0.00056524
-0.00057388
-0.000582013
-0.00058965
-0.000596797
-0.000603456
-0.000609629
-0.000615317
-0.00062052
-0.000625238
-0.000629474
-0.00063323
-0.000636509
-0.000639317
-0.000641663
-0.000643556
-0.000645008
-0.000646033
-0.000646646
-0.000646863
-0.000646699
-0.000646161
-0.000645245
-0.000644021
-0.000642501
-0.000640715
-0.00063869
-0.000636524
-0.000633579
1.64343e-05
4.66473e-07
-1.5618e-05
-3.20493e-05
-4.87863e-05
-6.57324e-05
-8.27973e-05
-9.99354e-05
-0.000117144
-0.00013443
-0.000151792
-0.00016921
-0.000186658
-0.000204109
-0.000221541
-0.000238935
-0.000256271
-0.00027353
-0.00029069
-0.000307729
-0.000324624
-0.000341352
-0.00035789
-0.000374215
-0.000390305
-0.000406136
-0.000421688
-0.000436937
-0.000451861
-0.000466438
-0.000480652
-0.000494485
-0.000507914
-0.000520917
-0.000533474
-0.000545573
-0.000557201
-0.000568349
-0.000579005
-0.000589157
-0.000598798
-0.000607921
-0.000616529
-0.000624636
-0.000632249
-0.000639371
-0.000646005
-0.000652152
-0.000657816
-0.000662998
-0.000667702
-0.000671931
-0.000675694
-0.000678996
-0.00068185
-0.000684266
-0.000686259
-0.000687845
-0.00068904
-0.000689861
-0.000690323
-0.000690435
-0.000690237
-0.000689786
-0.000689057
-0.00068819
-0.000687078
-0.000685843
-0.000684034
1.22094e-05
-4.62739e-06
-2.15877e-05
-3.89134e-05
-5.65594e-05
-7.44232e-05
-9.24102e-05
-0.000110472
-0.000128605
-0.000146817
-0.000165105
-0.000183448
-0.000201819
-0.00022019
-0.000238535
-0.000256835
-0.00027507
-0.000293217
-0.000311256
-0.000329161
-0.00034691
-0.000364478
-0.000381842
-0.000398977
-0.00041586
-0.000432467
-0.000448776
-0.000464763
-0.000480406
-0.000495684
-0.000510579
-0.000525072
-0.00053914
-0.00055276
-0.000565917
-0.000578597
-0.000590791
-0.000602488
-0.000613677
-0.000624348
-0.000634494
-0.000644111
-0.000653206
-0.000661794
-0.000669883
-0.000677478
-0.000684583
-0.000691201
-0.000697337
-0.000702993
-0.000708177
-0.000712895
-0.000717156
-0.00072097
-0.00072435
-0.00072731
-0.000729867
-0.000732036
-0.000733837
-0.000735286
-0.000736406
-0.000737231
-0.000737812
-0.000738159
-0.000738334
-0.000738484
-0.000738331
-0.000738119
-0.000736694
7.2096e-06
-1.05499e-05
-2.84397e-05
-4.67144e-05
-6.53242e-05
-8.41608e-05
-0.000103125
-0.000122165
-0.000141276
-0.000160467
-0.000179734
-0.000199055
-0.000218402
-0.000237744
-0.000257055
-0.000276312
-0.000295495
-0.000314581
-0.000333546
-0.000352365
-0.000371013
-0.000389466
-0.000407697
-0.000425682
-0.000443397
-0.000460816
-0.000477917
-0.000494676
-0.000511068
-0.000527075
-0.000542677
-0.000557854
-0.000572581
-0.000586839
-0.000600614
-0.000613893
-0.000626667
-0.000638927
-0.00065066
-0.000661859
-0.000672518
-0.000682637
-0.000692227
-0.000701304
-0.000709878
-0.000717953
-0.000725536
-0.000732633
-0.000739248
-0.000745389
-0.000751063
-0.000756281
-0.000761054
-0.000765395
-0.000769319
-0.000772842
-0.000775981
-0.000778754
-0.000781181
-0.000783291
-0.00078512
-0.000786711
-0.000788079
-0.000789285
-0.000790455
-0.000791645
-0.000792641
-0.00079392
-0.0007956
1.29671e-06
-1.74425e-05
-3.6319e-05
-5.5601e-05
-7.52337e-05
-9.51024e-05
-0.000115102
-0.000135179
-0.000155327
-0.000175554
-0.000195856
-0.000216213
-0.000236591
-0.000256959
-0.00027729
-0.000297559
-0.000317742
-0.000337818
-0.00035776
-0.000377542
-0.000397137
-0.000416519
-0.000435662
-0.000454539
-0.000473125
-0.000491394
-0.000509322
-0.000526884
-0.000544056
-0.000560821
-0.000577156
-0.000593039
-0.000608446
-0.000623362
-0.000637771
-0.000651664
-0.000665032
-0.000677864
-0.00069015
-0.000701884
-0.000713063
-0.00072369
-0.000733781
-0.000743353
-0.000752416
-0.000760977
-0.000769044
-0.000776624
-0.000783726
-0.000790358
-0.000796532
-0.00080226
-0.000807557
-0.000812438
-0.000816921
-0.000821021
-0.000824757
-0.000828153
-0.000831239
-0.000834054
-0.000836633
-0.000838994
-0.000841176
-0.000843317
-0.000845458
-0.000847623
-0.000849689
-0.000852555
-0.000855269
-5.69592e-06
-2.54759e-05
-4.54001e-05
-6.57517e-05
-8.64706e-05
-0.000107435
-0.000128535
-0.000149711
-0.000170958
-0.000192284
-0.000213684
-0.000235135
-0.000256606
-0.00027806
-0.000299469
-0.000320806
-0.000342047
-0.000363167
-0.00038414
-0.000404936
-0.000425529
-0.00044589
-0.000465991
-0.000485805
-0.000505305
-0.000524464
-0.000543257
-0.000561657
-0.000579643
-0.000597194
-0.000614287
-0.000630898
-0.000647007
-0.000662597
-0.000677656
-0.000692176
-0.000706146
-0.000719556
-0.000732399
-0.000744671
-0.000756371
-0.000767508
-0.000778101
-0.000788169
-0.000797721
-0.000806768
-0.000815318
-0.000823381
-0.00083097
-0.000838096
-0.000844774
-0.000851019
-0.000856848
-0.000862278
-0.000867327
-0.000872014
-0.000876364
-0.000880411
-0.000884193
-0.000887738
-0.000891064
-0.000894212
-0.000897279
-0.000900354
-0.000903413
-0.000906558
-0.000909764
-0.000913792
-0.000917652
-1.39613e-05
-3.48467e-05
-5.58835e-05
-7.73706e-05
-9.92429e-05
-0.000121371
-0.000143638
-0.000165982
-0.000188394
-0.000210884
-0.000233447
-0.000256059
-0.000278685
-0.000301288
-0.000323836
-0.000346302
-0.00036866
-0.000390882
-0.00041294
-0.000434805
-0.000456447
-0.000477836
-0.000498942
-0.000519737
-0.000540192
-0.00056028
-0.000579973
-0.000599245
-0.000618074
-0.000636439
-0.000654313
-0.000671674
-0.000688501
-0.000704782
-0.000720505
-0.00073566
-0.000750239
-0.000764232
-0.000777633
-0.000790442
-0.000802663
-0.000814309
-0.000825404
-0.000835965
-0.000846004
-0.000855532
-0.000864562
-0.000873108
-0.000881183
-0.000888804
-0.000895988
-0.000902754
-0.000909119
-0.000915103
-0.000920725
-0.000926013
-0.000931002
-0.000935724
-0.000940203
-0.000944466
-0.000948555
-0.000952543
-0.000956502
-0.00096046
-0.00096444
-0.000968623
-0.000972988
-0.000978173
-0.000984033
-2.37384e-05
-4.57999e-05
-6.802e-05
-9.07146e-05
-0.000113813
-0.000137179
-0.000160687
-0.000184272
-0.000207923
-0.00023165
-0.000255447
-0.00027929
-0.000303142
-0.000326964
-0.00035072
-0.000374382
-0.000397921
-0.000421309
-0.000444515
-0.000467508
-0.000490257
-0.000512729
-0.000534894
-0.00055672
-0.000578179
-0.000599239
-0.000619872
-0.000640054
-0.00065976
-0.000678965
-0.000697643
-0.000715771
-0.000733334
-0.000750316
-0.00076671
-0.000782503
-0.000797688
-0.000812259
-0.000826211
-0.000839547
-0.000852278
-0.000864421
-0.000876005
-0.000887044
-0.000897555
-0.00090755
-0.000917046
-0.000926061
-0.000934613
-0.000942721
-0.000950407
-0.000957692
-0.000964596
-0.000971141
-0.000977355
-0.000983268
-0.000988905
-0.000994283
-0.00099944
-0.00100444
-0.00100932
-0.00101414
-0.00101896
-0.0010238
-0.00102872
-0.00103386
-0.00103919
-0.00104561
-0.00105284
-3.52833e-05
-5.85952e-05
-8.2072e-05
-0.000106049
-0.00013045
-0.00015513
-0.000179956
-0.000204859
-0.000229825
-0.000254864
-0.00027997
-0.000305118
-0.000330269
-0.00035538
-0.000380415
-0.00040534
-0.000430127
-0.000454744
-0.000479159
-0.000503338
-0.000527249
-0.000550856
-0.000574127
-0.00059703
-0.000619532
-0.000641602
-0.000663212
-0.000684335
-0.000704945
-0.000725014
-0.000744517
-0.000763432
-0.000781744
-0.00079944
-0.00081651
-0.000832943
-0.000848733
-0.000863875
-0.00087837
-0.000892224
-0.000905453
-0.000918083
-0.00093014
-0.000941643
-0.000952608
-0.000963054
-0.000973001
-0.00098247
-0.000991486
-0.00100007
-0.00100826
-0.00101607
-0.00102353
-0.00103066
-0.0010375
-0.00104404
-0.00105031
-0.00105634
-0.0010622
-0.00106793
-0.00107358
-0.00107924
-0.00108492
-0.00109066
-0.00109647
-0.00110248
-0.00110867
-0.00111609
-0.00112434
-4.89673e-05
-7.36127e-05
-9.84305e-05
-0.000123775
-0.000149565
-0.000175647
-0.000201879
-0.000228187
-0.000254554
-0.000280991
-0.000307492
-0.00033403
-0.000360564
-0.000387048
-0.000413443
-0.000439714
-0.000465827
-0.000491751
-0.000517451
-0.000542891
-0.000568034
-0.000592845
-0.000617288
-0.000641327
-0.000664928
-0.000688058
-0.000710688
-0.000732788
-0.00075433
-0.000775284
-0.000795625
-0.000815335
-0.000834398
-0.000852803
-0.000870537
-0.000887593
-0.000903964
-0.00091965
-0.000934656
-0.000948995
-0.000962688
-0.000975769
-0.000988261
-0.00100019
-0.00101156
-0.00102242
-0.00103278
-0.00104267
-0.00105211
-0.00106116
-0.00106983
-0.00107816
-0.00108619
-0.00109393
-0.00110139
-0.00110856
-0.00111549
-0.00112224
-0.0011288
-0.00113522
-0.00114167
-0.0011482
-0.00115477
-0.0011614
-0.00116813
-0.00117509
-0.00118225
-0.00119056
-0.00119944
-6.50826e-05
-9.11448e-05
-0.000117384
-0.000144179
-0.000171444
-0.000199013
-0.000226738
-0.000254537
-0.000282391
-0.000310309
-0.000338288
-0.000366298
-0.000394295
-0.000422231
-0.000450063
-0.000477753
-0.000505264
-0.000532562
-0.000559611
-0.00058637
-0.000612802
-0.000638868
-0.000664529
-0.00068975
-0.000714493
-0.000738725
-0.000762413
-0.000785526
-0.000808031
-0.000829898
-0.000851103
-0.000871628
-0.000891456
-0.000910575
-0.000928974
-0.000946645
-0.000963583
-0.000979793
-0.000995286
-0.00101008
-0.00102421
-0.00103771
-0.0010506
-0.0010629
-0.00107465
-0.00108588
-0.0010966
-0.00110687
-0.00111672
-0.00112619
-0.00113532
-0.00114417
-0.00115275
-0.00116107
-0.00116913
-0.001177
-0.0011847
-0.00119214
-0.00119938
-0.0012066
-0.00121394
-0.00122138
-0.0012289
-0.00123657
-0.00124447
-0.00125274
-0.00126124
-0.0012706
-0.00128009
-8.4299e-05
-0.000111878
-0.000139645
-0.000167994
-0.000196838
-0.000226002
-0.000255327
-0.000284724
-0.000314172
-0.00034368
-0.000373244
-0.000402834
-0.000432402
-0.000461898
-0.000491274
-0.000520487
-0.000549501
-0.000578276
-0.000606773
-0.00063495
-0.000662763
-0.000690171
-0.00071713
-0.000743599
-0.000769541
-0.000794919
-0.000819699
-0.000843845
-0.000867322
-0.000890103
-0.000912165
-0.000933488
-0.000954056
-0.000973855
-0.000992876
-0.00101111
-0.00102856
-0.00104523
-0.00106114
-0.00107632
-0.0010908
-0.00110462
-0.0011178
-0.00113039
-0.00114241
-0.0011539
-0.0011649
-0.00117546
-0.00118562
-0.00119545
-0.00120499
-0.00121428
-0.00122333
-0.00123219
-0.00124092
-0.00124954
-0.00125791
-0.00126606
-0.00127417
-0.00128239
-0.00129073
-0.00129924
-0.001308
-0.00131715
-0.00132671
-0.00133673
-0.0013469
-0.00135763
-0.00136784
-0.000106772
-0.000135957
-0.000165328
-0.000195316
-0.000225828
-0.000256676
-0.000287692
-0.000318776
-0.000349905
-0.000381087
-0.000412319
-0.000443569
-0.000474789
-0.000505922
-0.000536917
-0.000567727
-0.000598312
-0.00062863
-0.000658638
-0.000688291
-0.000717546
-0.000746356
-0.000774677
-0.000802463
-0.000829673
-0.000856265
-0.000882198
-0.000907432
-0.000931931
-0.000955667
-0.000978615
-0.00100075
-0.00102207
-0.00104254
-0.00106217
-0.00108094
-0.00109887
-0.00111597
-0.00113226
-0.00114777
-0.00116255
-0.00117663
-0.00119005
-0.00120284
-0.00121506
-0.00122674
-0.00123792
-0.00124866
-0.00125905
-0.00126915
-0.00127902
-0.00128868
-0.0012982
-0.00130765
-0.00131704
-0.00132627
-0.00133536
-0.00134449
-0.00135377
-0.00136319
-0.00137282
-0.00138283
-0.00139338
-0.00140454
-0.00141619
-0.00142819
-0.00143991
-0.00145161
-0.00146063
-0.000133939
-0.000164864
-0.000195996
-0.00022777
-0.000260091
-0.000292771
-0.000325627
-0.000358551
-0.000391515
-0.000424525
-0.000457579
-0.000490644
-0.000523669
-0.000556591
-0.000589355
-0.00062191
-0.000654209
-0.000686205
-0.00071785
-0.000749094
-0.000779887
-0.000810178
-0.000839921
-0.00086907
-0.000897581
-0.000925409
-0.000952508
-0.000978837
-0.00100436
-0.00102904
-0.00105286
-0.00107578
-0.00109779
-0.00111888
-0.00113903
-0.00115826
-0.00117656
-0.00119397
-0.00121053
-0.00122627
-0.00124123
-0.00125544
-0.00126893
-0.00128177
-0.00129399
-0.00130565
-0.00131682
-0.00132754
-0.00133791
-0.00134807
-0.0013581
-0.00136805
-0.00137801
-0.001388
-0.00139793
-0.00140787
-0.00141805
-0.00142855
-0.00143929
-0.00145027
-0.00146166
-0.00147366
-0.00148635
-0.00149964
-0.00151322
-0.00152673
-0.00153925
-0.00155071
-0.00155752
-0.000165106
-0.000197825
-0.000230732
-0.000264329
-0.000298517
-0.000333086
-0.00036784
-0.000402661
-0.000437516
-0.000472413
-0.000507348
-0.00054229
-0.000577182
-0.000611959
-0.000646559
-0.000680929
-0.00071502
-0.000748781
-0.00078216
-0.000815101
-0.000847545
-0.000879433
-0.000910707
-0.000941315
-0.000971205
-0.00100033
-0.00102863
-0.00105608
-0.00108264
-0.00110826
-0.00113293
-0.0011566
-0.00117927
-0.00120091
-0.00122152
-0.0012411
-0.00125968
-0.0012773
-0.00129401
-0.00130989
-0.00132499
-0.00133936
-0.00135302
-0.00136598
-0.00137825
-0.0013899
-0.00140107
-0.00141183
-0.00142225
-0.00143244
-0.0014426
-0.00145288
-0.00146331
-0.00147385
-0.00148454
-0.00149563
-0.00150725
-0.00151932
-0.00153174
-0.00154449
-0.00155769
-0.0015714
-0.00158554
-0.00159986
-0.00161396
-0.0016273
-0.00163904
-0.00164877
-0.00165412
-0.000204305
-0.000239083
-0.000274093
-0.000309794
-0.000346104
-0.000382821
-0.000419735
-0.000456711
-0.000493708
-0.000530738
-0.000567798
-0.000604857
-0.00064185
-0.000678703
-0.000715345
-0.000751713
-0.000787755
-0.00082342
-0.000858656
-0.000893408
-0.000927617
-0.000961221
-0.000994154
-0.00102635
-0.00105775
-0.00108828
-0.0011179
-0.00114655
-0.00117418
-0.00120075
-0.00122623
-0.00125059
-0.0012738
-0.00129584
-0.00131669
-0.00133636
-0.00135484
-0.00137219
-0.00138845
-0.00140374
-0.00141822
-0.00143204
-0.00144533
-0.00145805
-0.00147008
-0.00148135
-0.00149212
-0.00150274
-0.00151324
-0.00152351
-0.0015339
-0.00154464
-0.00155562
-0.00156689
-0.00157858
-0.00159083
-0.00160364
-0.00161691
-0.00163046
-0.00164411
-0.00165771
-0.0016711
-0.00168414
-0.00169659
-0.00170815
-0.00171845
-0.00172697
-0.00173329
-0.00173618
-0.00024601
-0.000282721
-0.000319594
-0.000357258
-0.000395625
-0.000434449
-0.000473488
-0.00051259
-0.000551705
-0.000590844
-0.000630011
-0.000669179
-0.000708291
-0.000747268
-0.00078603
-0.000824499
-0.000862599
-0.000900262
-0.000937427
-0.000974033
-0.00101002
-0.00104533
-0.0010799
-0.00111365
-0.00114654
-0.0011785
-0.00120946
-0.00123938
-0.0012682
-0.00129587
-0.00132235
-0.0013476
-0.00137161
-0.00139435
-0.00141581
-0.00143597
-0.00145484
-0.00147237
-0.00148859
-0.00150355
-0.00151741
-0.00153045
-0.00154303
-0.00155536
-0.0015673
-0.00157848
-0.00158895
-0.00159934
-0.00161009
-0.00162102
-0.00163209
-0.0016435
-0.00165539
-0.0016677
-0.00168031
-0.00169314
-0.00170606
-0.00171886
-0.00173118
-0.00174266
-0.001753
-0.00176204
-0.00176976
-0.00177625
-0.00178164
-0.001786
-0.00178925
-0.00179114
-0.0017909
-0.000306658
-0.00034575
-0.000385181
-0.00042536
-0.000466232
-0.000507606
-0.000549243
-0.000590965
-0.000632704
-0.000674453
-0.000716205
-0.00075792
-0.000799531
-0.000840966
-0.000882161
-0.000923056
-0.000963576
-0.00100363
-0.00104313
-0.00108199
-0.00112012
-0.00115745
-0.00119389
-0.00122936
-0.0012638
-0.00129712
-0.00132925
-0.00136011
-0.00138964
-0.00141776
-0.00144447
-0.00146974
-0.00149358
-0.00151599
-0.00153697
-0.00155657
-0.00157478
-0.00159159
-0.001607
-0.00162104
-0.00163378
-0.00164539
-0.00165628
-0.00166693
-0.00167752
-0.00168778
-0.00169763
-0.00170741
-0.00171749
-0.00172801
-0.00173889
-0.00175006
-0.00176139
-0.00177266
-0.00178354
-0.0017937
-0.00180283
-0.00181063
-0.00181683
-0.00182124
-0.00182385
-0.00182471
-0.00182404
-0.00182239
-0.00182039
-0.00181854
-0.00181709
-0.00181576
-0.00181413
-0.000355814
-0.0003971
-0.000438412
-0.000480756
-0.000523938
-0.00056758
-0.000611425
-0.000655351
-0.000699331
-0.000743374
-0.000787469
-0.000831568
-0.000875571
-0.000919358
-0.00096284
-0.00100596
-0.00104868
-0.00109094
-0.00113266
-0.00117375
-0.00121409
-0.0012536
-0.00129219
-0.00132978
-0.0013663
-0.00140171
-0.00143595
-0.00146897
-0.00150065
-0.00153085
-0.00155944
-0.00158633
-0.00161148
-0.00163488
-0.00165656
-0.00167656
-0.00169494
-0.00171169
-0.00172688
-0.00174065
-0.00175313
-0.00176436
-0.00177447
-0.00178367
-0.00179218
-0.00180017
-0.00180774
-0.00181492
-0.00182178
-0.00182833
-0.00183452
-0.00184025
-0.00184537
-0.00184978
-0.00185335
-0.00185594
-0.00185741
-0.00185758
-0.00185636
-0.00185373
-0.00184983
-0.00184476
-0.00183874
-0.00183248
-0.00182678
-0.00182227
-0.00181927
-0.00181747
-0.00181667
-0.00045854
-0.000502214
-0.000546975
-0.000592809
-0.000639418
-0.000686492
-0.000733747
-0.000781021
-0.000828295
-0.0008756
-0.000922931
-0.000970221
-0.00101738
-0.0010643
-0.00111087
-0.00115697
-0.00120251
-0.00124742
-0.00129163
-0.00133502
-0.00137749
-0.00141889
-0.00145907
-0.00149791
-0.00153524
-0.00157094
-0.00160488
-0.00163697
-0.0016672
-0.0016956
-0.00172215
-0.00174677
-0.00176936
-0.00178986
-0.00180817
-0.00182426
-0.00183807
-0.00184958
-0.00185885
-0.00186602
-0.00187126
-0.00187472
-0.00187661
-0.00187713
-0.00187661
-0.00187534
-0.00187361
-0.00187169
-0.00186979
-0.00186812
-0.00186679
-0.00186586
-0.00186529
-0.001865
-0.00186484
-0.00186463
-0.00186418
-0.00186327
-0.00186164
-0.00185912
-0.00185552
-0.00185068
-0.00184482
-0.00183834
-0.00183183
-0.001826
-0.0018214
-0.00181805
-0.00181555
7.2935e-05
7.70653e-05
8.18278e-05
8.70293e-05
9.26065e-05
9.86699e-05
0.000105406
0.000112653
0.000120276
0.000128283
0.000136882
0.000146078
0.000155496
0.000165759
0.000175502
0.000186006
0.000196118
0.000206815
0.00021728
0.000227597
0.000238325
0.000247803
0.000256995
0.000264925
0.000272377
0.000279382
0.000284875
0.00028899
0.000292414
0.000294625
0.00029477
0.000293716
0.000291633
0.000288602
0.00028349
0.000277147
0.000270003
0.000261586
0.000251936
0.000241945
0.000231215
0.000220074
0.00020859
0.000197199
0.000185209
0.000173721
0.000161837
0.000150464
0.000138953
0.000127677
0.000116877
0.000106386
9.63819e-05
8.68092e-05
7.77056e-05
6.8614e-05
5.99676e-05
5.15667e-05
4.34525e-05
7.36681e-05
7.8037e-05
8.29653e-05
8.83296e-05
9.41981e-05
0.000100578
0.000107521
0.000114999
0.000122983
0.000131486
0.000140483
0.000149999
0.000159953
0.000170272
0.000180969
0.000191719
0.000202805
0.00021385
0.000225016
0.000235836
0.000246552
0.000256924
0.000266423
0.000275037
0.000282931
0.000290129
0.000296111
0.00030055
0.000304078
0.000306324
0.00030662
0.000305826
0.000303741
0.000300221
0.000295021
0.000288389
0.000280769
0.000272118
0.000262201
0.000251562
0.000240573
0.000229015
0.000216968
0.000204634
0.000192252
0.000179971
0.000167626
0.000155553
0.000143618
0.000131931
0.000120648
0.000109741
9.91776e-05
8.90356e-05
7.91968e-05
6.97523e-05
6.06731e-05
5.19919e-05
4.36689e-05
7.50339e-05
7.96168e-05
8.47051e-05
9.02762e-05
9.63786e-05
0.000103028
0.000110231
0.000117989
0.000126313
0.000135193
0.000144592
0.000154474
0.000164833
0.000175618
0.000186759
0.000198208
0.000209852
0.000221546
0.000233191
0.000244601
0.000255719
0.000266512
0.000276598
0.000285858
0.000294301
0.00030178
0.000308042
0.000312903
0.000316611
0.000318873
0.0003195
0.00031883
0.000316606
0.00031279
0.000307361
0.000300488
0.000292408
0.000283306
0.000273106
0.000262091
0.000250467
0.000238244
0.000225527
0.000212568
0.000199548
0.000186575
0.000173632
0.000160891
0.000148392
0.000136159
0.000124282
0.000112764
0.000101614
9.08442e-05
8.05011e-05
7.05818e-05
6.1051e-05
5.19447e-05
4.3213e-05
7.62949e-05
8.10747e-05
8.63948e-05
9.22173e-05
9.85938e-05
0.000105537
0.000113057
0.000121156
0.000129838
0.000139098
0.000148918
0.000159266
0.000170122
0.00018143
0.000193105
0.000205106
0.000217277
0.000229553
0.000241763
0.000253803
0.000265538
0.000276821
0.000287466
0.000297303
0.000306251
0.000314113
0.000320711
0.000325935
0.000329859
0.00033222
0.000333053
0.000332425
0.000330115
0.000326121
0.000320456
0.000313306
0.000304812
0.000295183
0.000284486
0.00027291
0.00026058
0.000247654
0.000234305
0.000220738
0.000207052
0.000193378
0.000179767
0.000166336
0.000153166
0.000140285
0.000127745
0.000115584
0.000103836
9.25122e-05
8.163e-05
7.11895e-05
6.11774e-05
5.16201e-05
4.24653e-05
7.70316e-05
8.20201e-05
8.75855e-05
9.36847e-05
0.000100369
0.000107645
0.000115528
0.000124022
0.000133126
0.000142834
0.000153131
0.000163994
0.000175391
0.000187265
0.000199538
0.000212125
0.000224911
0.000237807
0.000250665
0.000263357
0.000275736
0.000287619
0.000298846
0.000309247
0.000318691
0.000326998
0.000333994
0.00033956
0.000343715
0.000346231
0.000347181
0.000346559
0.000344183
0.000340034
0.00033413
0.000326663
0.000317748
0.000307579
0.000296283
0.000284045
0.00027102
0.000257409
0.000243392
0.000229134
0.000214741
0.00020034
0.000186023
0.000171886
0.000158012
0.00014445
0.000131248
0.000118452
0.000106095
9.41946e-05
8.27588e-05
7.17945e-05
6.12929e-05
5.1272e-05
4.16685e-05
7.73341e-05
8.25369e-05
8.83479e-05
9.47241e-05
0.000101719
0.00010934
0.000117604
0.000126515
0.000136074
0.000146272
0.000157093
0.000168512
0.000180491
0.000192976
0.000205892
0.000219143
0.000232623
0.000246218
0.000259782
0.00027317
0.000286227
0.000298776
0.00031064
0.000321642
0.000331629
0.000340427
0.000347857
0.000353783
0.000358192