/*--------------------------------*- C++ -*----------------------------------*\
| =========                 |                                                 |
| \\      /  F ield         | OpenFOAM: The Open Source CFD Toolbox           |
|  \\    /   O peration     | Version:  2312                                  |
|   \\  /    A nd           | Website:  www.openfoam.com                      |
|    \\/     M anipulation  |                                                 |
\*---------------------------------------------------------------------------*/
FoamFile
{
    version     2.0;
    format      ascii;
    arch        "LSB;label=32;scalar=64";
    class       surfaceScalarField;
    location    "800";
    object      phi;
}
// * * * * * * * * * * * * * * * * * * * * * * * * * * * * * * * * * * * * * //

dimensions      [0 3 -1 0 0 0 0];

oriented        oriented;

internalField   nonuniform List<scalar> 
116611
(
0.00107453
0.000449546
-0.00105869
-0.000465386
0.00109034
0.000446845
-0.000462656
0.00110583
0.000443775
-0.000459266
0.00112119
0.000440347
-0.000455705
0.00113664
0.000436763
-0.000452216
0.00115212
0.000432876
-0.000448353
0.00116741
0.000428786
-0.000444073
0.00118275
0.000424451
-0.000439791
0.00119748
0.000419704
-0.000434437
0.00121202
0.00041457
-0.00042911
0.00122637
0.000409081
-0.000423431
0.00124059
0.000403277
-0.000417493
0.00125437
0.000397107
-0.00041089
0.00126758
0.000390499
-0.00040371
0.00128023
0.000383405
-0.000396057
0.00129259
0.000375946
-0.000388307
0.00130476
0.000367977
-0.000380141
0.00131679
0.000359816
-0.000371848
0.00132832
0.000351044
-0.000362579
0.00133935
0.000341966
-0.000352999
0.00134999
0.000332323
-0.000342963
0.00135985
0.000322238
-0.000332095
0.001369
0.000311561
-0.000320712
0.00137764
0.000300488
-0.00030912
0.00138575
0.000288932
-0.000297047
0.00139361
0.000276944
-0.000284807
0.00140086
0.000264338
-0.000271585
0.00140748
0.000251335
-0.000257958
0.00141421
0.00023798
-0.000244706
0.00142008
0.000224135
-0.000230011
0.00142536
0.000209836
-0.000215109
0.00143033
0.00019492
-0.000199891
0.00143447
0.000179481
-0.00018362
0.00143816
0.000163716
-0.000167409
0.00144132
0.000147366
-0.000150522
0.00144365
0.00013065
-0.000132986
0.001446
0.000113548
-0.000115899
0.00144713
9.58379e-05
-9.69667e-05
0.00144785
7.76975e-05
-7.8419e-05
0.00144779
5.89875e-05
-5.89215e-05
0.00144708
3.99997e-05
-3.92941e-05
0.00144633
2.06188e-05
-1.98636e-05
0.00144438
5.93923e-07
1.34856e-06
0.00144197
-1.97927e-05
2.22045e-05
0.0014387
-4.06627e-05
4.39347e-05
0.00143525
-6.17212e-05
6.51755e-05
0.00143096
-8.3354e-05
8.76414e-05
0.00142558
-0.000105313
0.00011069
0.00141987
-0.00012726
0.000132974
0.00141356
-0.000149441
0.000155751
0.00140644
-0.000171932
0.000179053
0.00139878
-0.000194493
0.00020215
0.00139045
-0.000217224
0.000225553
0.00138116
-0.000240151
0.000249439
0.00137037
-0.0002631
0.000273888
0.00135978
-0.00028545
0.000296042
0.00134747
-0.000308037
0.000320344
0.00133483
-0.000330102
0.000342745
0.0013216
-0.000351776
0.000365013
0.00130792
-0.000372842
0.000386516
0.00129285
-0.000393898
0.000408973
0.00127749
-0.00041422
0.000429571
0.00126171
-0.000433436
0.000449218
0.00124504
-0.000452103
0.000468773
0.00122729
-0.000469918
0.000487665
0.00121
-0.000486082
0.000503381
0.00119256
-0.000501186
0.000518622
0.00117478
-0.000515954
0.000533739
-0.000528447
0.00115417
0.000549055
0.00106036
0.000433443
-0.00104425
0.00107623
0.000430971
0.00109185
0.000428157
0.00110719
0.000425003
0.00112245
0.000421507
0.00113756
0.000417764
0.00115262
0.000413731
0.00116764
0.00040943
0.00118248
0.000404864
0.00119708
0.000399971
0.00121142
0.000394734
0.00122555
0.000389147
0.00123946
0.000383201
0.00125306
0.000376898
0.00126621
0.000370253
0.00127899
0.000363165
0.0012913
0.000355669
0.00130337
0.000347742
0.00131501
0.000339405
0.00132636
0.000330621
0.00133727
0.000321409
0.00134774
0.000311767
0.00135764
0.000301667
0.001367
0.000291124
0.00137582
0.000280113
0.00138417
0.000268593
0.00139189
0.000256621
0.00139905
0.000244171
0.00140579
0.000231243
0.001412
0.000217927
0.00141773
0.000204105
0.00142292
0.000189732
0.00142748
0.000174917
0.00143154
0.000159654
0.00143497
0.000143934
0.00143787
0.000127757
0.00144028
0.000111135
0.00144205
9.40699e-05
0.00144322
7.65203e-05
0.00144369
5.85196e-05
0.00144359
4.01007e-05
0.00144292
2.12883e-05
0.00144145
2.06417e-06
0.00143934
-1.7681e-05
0.0014365
-3.78256e-05
0.00143308
-5.82988e-05
0.00142885
-7.91249e-05
0.00142382
-0.000100278
0.00141817
-0.000121612
0.00141186
-0.000143129
0.00140479
-0.000164864
0.00139704
-0.000186741
0.00138854
-0.000208727
0.00137918
-0.000230792
0.00136893
-0.000252851
0.00135816
-0.000274679
0.00134648
-0.00029636
0.00133416
-0.000317773
0.00132117
-0.000338787
0.00130769
-0.00035936
0.00129337
-0.000379583
0.00127838
-0.000399228
0.00126299
-0.000418048
0.00124701
-0.000436126
0.00123046
-0.000453364
0.00121378
-0.000469403
0.00119679
-0.000484193
0.00117939
-0.000498555
-0.000510546
0.00116149
0.00104613
0.000417348
-0.00103004
0.00106209
0.000415014
0.00107787
0.000412378
0.00109342
0.000409451
0.00110872
0.000406205
0.00112384
0.000402653
0.00113877
0.000398795
0.00115357
0.000394634
0.00116824
0.000390191
0.00118275
0.000385457
0.00119707
0.000380418
0.00121116
0.000375054
0.00122501
0.00036935
0.00123861
0.000363299
0.00125196
0.000356909
0.00126497
0.000350154
0.00127762
0.000343019
0.00128988
0.000335476
0.00130177
0.00032752
0.00131325
0.000319137
0.00132433
0.00031033
0.001335
0.000301096
0.00134524
0.000291431
0.00135503
0.000281333
0.00136435
0.000270799
0.00137313
0.00025981
0.00138139
0.000248363
0.0013891
0.000236457
0.00139626
0.00022409
0.00140292
0.000211267
0.00140905
0.000197971
0.00141459
0.000184192
0.00141956
0.000169947
0.00142396
0.000155251
0.00142779
0.000140109
0.00143103
0.000124515
0.00143369
0.000108476
0.00143577
9.19904e-05
0.00143724
7.50532e-05
0.00143807
5.76892e-05
0.00143826
3.99045e-05
0.00143782
2.17271e-05
0.00143671
3.17892e-06
0.0014349
-1.58759e-05
0.0014324
-3.53206e-05
0.00142921
-5.51071e-05
0.0014253
-7.5215e-05
0.00142064
-9.56239e-05
0.00141529
-0.000116259
0.00140924
-0.000137084
0.00140247
-0.000158094
0.00139498
-0.00017925
0.00138676
-0.000200502
0.00137777
-0.000221801
0.00136799
-0.000243079
0.00135754
-0.000264222
0.00134636
-0.000285186
0.0013345
-0.000305915
0.00132203
-0.000326309
0.00130897
-0.000346304
0.00129526
-0.000365877
0.00128096
-0.000384926
0.0012662
-0.00040329
0.00125098
-0.000420897
0.00123525
-0.000437642
0.00121921
-0.000453363
0.00120296
-0.000467941
0.00118647
-0.000482063
-0.000493649
0.00116957
0.00103274
0.000401504
-0.00101689
0.00104856
0.000399192
0.00106431
0.000396629
0.00107993
0.00039383
0.00109536
0.000390771
0.00111059
0.000387429
0.00112559
0.000383791
0.00114038
0.000379847
0.00115497
0.000375598
0.00116938
0.000371047
0.00118361
0.000366194
0.00119763
0.000361034
0.00121142
0.000355555
0.00122498
0.000349746
0.00123828
0.0003436
0.00125132
0.000337114
0.00126407
0.000330272
0.00127649
0.000323062
0.00128854
0.000315465
0.00130021
0.00030747
0.00131147
0.000299065
0.00132232
0.000290244
0.00133275
0.000281003
0.00134275
0.000271339
0.00135229
0.000261251
0.00136137
0.000250731
0.00136996
0.000239772
0.00137805
0.000228372
0.00138561
0.000216526
0.00139265
0.000204228
0.00139915
0.000191477
0.00140507
0.000178267
0.00141042
0.000164599
0.00141519
0.000150483
0.00141937
0.000135923
0.00142297
0.000120919
0.00142597
0.000105474
0.00142837
8.95922e-05
0.00143014
7.32789e-05
0.00143128
5.65504e-05
0.00143178
3.94094e-05
0.00143163
2.18751e-05
0.00143082
3.99149e-06
0.00142931
-1.43754e-05
0.00142712
-3.31299e-05
0.00142424
-5.22237e-05
0.00142065
-7.16278e-05
0.00141634
-9.13146e-05
0.00141132
-0.000111239
0.00140561
-0.000131365
0.00139918
-0.000151665
0.00139203
-0.000172105
0.00138417
-0.000192638
0.00137558
-0.000213212
0.00136627
-0.000233766
0.00135627
-0.000254224
0.00134561
-0.000274525
0.0013343
-0.000294608
0.00132239
-0.000314398
0.00130991
-0.000333824
0.00129687
-0.000352834
0.00128329
-0.000371349
0.00126924
-0.000389245
0.00125476
-0.000406412
0.00123986
-0.000422738
0.00122465
-0.000438156
0.00120927
-0.000452557
0.00119363
-0.000466423
-0.000477454
0.00117743
0.00102042
0.000385851
-0.00100477
0.00103604
0.000383576
0.00105161
0.000381054
0.00106713
0.000378318
0.00108253
0.000375362
0.0010978
0.000372166
0.00111288
0.000368711
0.00112775
0.000364978
0.00114239
0.000360952
0.00115681
0.000356625
0.00117101
0.000351994
0.00118499
0.000347056
0.00119874
0.000341807
0.00121225
0.000336239
0.0012255
0.000330346
0.0012385
0.00032412
0.00125122
0.000317553
0.00126364
0.000310636
0.00127575
0.000303359
0.00128751
0.000295709
0.0012989
0.000287675
0.00130989
0.000279248
0.00132048
0.00027042
0.00133063
0.000261184
0.00134035
0.000251535
0.00134961
0.000241468
0.00135841
0.000230977
0.00136672
0.000220059
0.00137453
0.00020871
0.00138184
0.000196926
0.00138861
0.000184704
0.00139484
0.00017204
0.0014005
0.000158934
0.0014056
0.000145389
0.00141011
0.000131408
0.00141404
0.000116993
0.00141736
0.000102147
0.00142008
8.68765e-05
0.00142217
7.11862e-05
0.00142363
5.50902e-05
0.00142445
3.85902e-05
0.00142462
2.17029e-05
0.00142414
4.47925e-06
0.00142297
-1.32086e-05
0.00142112
-3.12793e-05
0.00141858
-4.96835e-05
0.00141534
-6.8391e-05
0.0014114
-8.7374e-05
0.00140676
-0.000106599
0.00140143
-0.00012603
0.0013954
-0.000145635
0.00138867
-0.00016538
0.00138125
-0.000185219
0.00137314
-0.000205103
0.00136435
-0.000224977
0.00135491
-0.000244779
0.00134483
-0.000264447
0.00133414
-0.00028392
0.00132287
-0.000303131
0.00131106
-0.000322013
0.00129873
-0.000340504
0.00128591
-0.000358526
0.00127263
-0.000375967
0.00125893
-0.000392715
0.00124488
-0.00040868
0.00123055
-0.000423835
0.00121607
-0.000438076
0.00120135
-0.0004517
-0.00046257
0.00118647
0.00100888
0.00037016
-0.000993185
0.00102444
0.000368014
0.0010399
0.000365593
0.00105527
0.000362943
0.00107056
0.000360075
0.00108574
0.000356985
0.00110079
0.000353661
0.00111568
0.000350091
0.00113037
0.000346258
0.00114485
0.000342147
0.0011591
0.000337747
0.0011731
0.000333049
0.00118687
0.000328046
0.00120037
0.000322732
0.00121362
0.000317101
0.00122659
0.000311146
0.00123928
0.000304859
0.00125169
0.000298234
0.00126378
0.000291263
0.00127555
0.000283938
0.00128698
0.000276249
0.00129804
0.000268188
0.00130871
0.000259747
0.00131898
0.000250917
0.00132882
0.000241692
0.00133823
0.000232064
0.00134717
0.000222029
0.00135565
0.000211582
0.00136364
0.000200717
0.00137114
0.000189432
0.00137812
0.000177724
0.00138457
0.000165589
0.00139047
0.000153028
0.00139582
0.00014004
0.0014006
0.000126628
0.0014048
0.000112794
0.00140841
9.85408e-05
0.00141141
8.38731e-05
0.0014138
6.87969e-05
0.00141557
5.33251e-05
0.0014167
3.74589e-05
0.00141719
2.12137e-05
0.00141703
4.63986e-06
0.0014162
-1.23838e-05
0.00141471
-2.97838e-05
0.00141253
-4.7512e-05
0.00140968
-6.55394e-05
0.00140615
-8.38397e-05
0.00140193
-0.000102383
0.00139704
-0.000121136
0.00139147
-0.000140067
0.00138523
-0.000159138
0.00137832
-0.00017831
0.00137075
-0.000197535
0.00136254
-0.000216762
0.00135369
-0.000235936
0.00134425
-0.000254999
0.00133422
-0.000273892
0.00132364
-0.000292551
0.00131254
-0.000310914
0.00130095
-0.000328914
0.00128889
-0.000346468
0.00127639
-0.00036347
0.00126351
-0.000379829
0.00125031
-0.00039548
0.00123688
-0.000410404
0.00122326
-0.000424457
0.00120929
-0.000437727
-0.00044825
0.00119497
0.000997698
0.000354298
-0.000981836
0.00101338
0.000352333
0.00102889
0.000350079
0.00104426
0.000347579
0.00105949
0.000344846
0.00107459
0.000341883
0.00108956
0.000338689
0.00110439
0.000335261
0.00111906
0.000331589
0.00113354
0.000327663
0.00114782
0.00032347
0.00116187
0.000318999
0.00117568
0.00031424
0.00118922
0.000309183
0.00120251
0.000303821
0.00121551
0.000298145
0.00122822
0.000292148
0.00124063
0.000285823
0.00125273
0.000279164
0.0012645
0.000272162
0.00127594
0.000264811
0.00128703
0.000257104
0.00129774
0.000249033
0.00130807
0.000240591
0.00131799
0.000231771
0.00132748
0.000222566
0.00133654
0.00021297
0.00134515
0.000202978
0.00135328
0.000192585
0.00136093
0.000181786
0.00136807
0.000170578
0.0013747
0.000158959
0.0013808
0.000146928
0.00138636
0.000134483
0.00139136
0.000121626
0.0013958
0.000108359
0.00139965
9.46855e-05
0.00140292
8.06079e-05
0.00140558
6.61328e-05
0.00140763
5.1272e-05
0.00140907
3.60258e-05
0.00140987
2.04094e-05
0.00141004
4.47012e-06
0.00140957
-1.19085e-05
0.00140844
-2.8656e-05
0.00140665
-4.57266e-05
0.00140421
-6.30937e-05
0.0014011
-8.0732e-05
0.00139733
-9.86139e-05
0.0013929
-0.00011671
0.00138782
-0.000134986
0.00138209
-0.000153409
0.00137572
-0.000171939
0.00136872
-0.000190532
0.0013611
-0.000209141
0.00135288
-0.000227716
0.00134408
-0.0002462
0.00133473
-0.000264538
0.00132485
-0.000282672
0.00131447
-0.000300538
0.00130362
-0.000318066
0.00129232
-0.00033517
0.00128061
-0.000351757
0.00126855
-0.000367766
0.00125621
-0.00038314
0.00124364
-0.000397835
0.00123081
-0.00041163
0.00121754
-0.000424451
-0.000434597
0.00120388
0.000986782
0.000338289
-0.000970772
0.00100262
0.000336492
0.00101829
0.000334416
0.00103377
0.000332099
0.00104907
0.000329545
0.00106419
0.000326755
0.00107916
0.000323727
0.00109396
0.000320462
0.00110859
0.000316957
0.00112304
0.000313208
0.00113731
0.000309206
0.00115136
0.000304944
0.00116519
0.000300412
0.00117877
0.000295599
0.0011921
0.000290497
0.00120515
0.000285096
0.0012179
0.000279389
0.00123036
0.000273367
0.0012425
0.000267023
0.00125431
0.000260349
0.00126579
0.000253338
0.00127691
0.000245983
0.00128766
0.000238279
0.00129804
0.000230217
0.00130802
0.000221792
0.00131758
0.000212998
0.00132673
0.000203828
0.00133543
0.000194278
0.00134367
0.000184341
0.00135144
0.000174014
0.00135872
0.000163294
0.00136551
0.000152176
0.00137178
0.00014066
0.00137752
0.000128743
0.00138271
0.000116428
0.00138736
0.000103714
0.00139144
9.06041e-05
0.00139495
7.71018e-05
0.00139787
6.32125e-05
0.00140019
4.89468e-05
0.00140192
3.43039e-05
0.00140303
1.92995e-05
0.00140352
3.97704e-06
0.00140339
-1.17782e-05
0.00140263
-2.78932e-05
0.00140123
-4.4327e-05
0.00139919
-6.10548e-05
0.00139651
-7.80533e-05
0.00139319
-9.52965e-05
0.00138924
-0.000112757
0.00138465
-0.000130402
0.00137945
-0.000148201
0.00137362
-0.000166114
0.00136719
-0.000184102
0.00136017
-0.00020212
0.00135257
-0.00022012
0.00134443
-0.000238051
0.00133575
-0.00025586
0.00132656
-0.000273489
0.0013169
-0.000290875
0.00130678
-0.000307945
0.00129623
-0.000324619
0.0012853
-0.000340827
0.00127406
-0.000356526
0.00126256
-0.000371636
0.00125079
-0.000386073
0.0012387
-0.000399537
0.00122622
-0.000411974
-0.000422374
0.001214
0.000976282
0.000322221
-0.000960215
0.000992221
0.000320553
0.00100801
0.000318628
0.00102363
0.000316481
0.00103906
0.000314111
0.0010543
0.000311512
0.00106935
0.000308678
0.00108421
0.000305608
0.00109887
0.000302297
0.00111333
0.000298743
0.0011276
0.000294942
0.00114165
0.000290889
0.00115549
0.000286577
0.00116909
0.000281999
0.00118244
0.000277147
0.00119552
0.000272012
0.00120832
0.000266585
0.00122083
0.000260859
0.00123303
0.000254825
0.0012449
0.000248476
0.00125644
0.000241803
0.00126762
0.000234801
0.00127844
0.000227461
0.00128888
0.000219778
0.00129892
0.000211744
0.00130857
0.000203355
0.00131779
0.000194604
0.00132658
0.000185487
0.00133493
0.000175997
0.00134281
0.000166131
0.00135022
0.000155885
0.00135714
0.000145255
0.00136356
0.00013424
0.00136946
0.000122838
0.00137484
0.000111049
0.00137968
9.88733e-05
0.00138397
8.63129e-05
0.00138771
7.337e-05
0.00139087
6.00501e-05
0.00139345
4.63624e-05
0.00139545
3.23044e-05
0.00139686
1.78941e-05
0.00139767
3.16832e-06
0.00139787
-1.19844e-05
0.00139747
-2.74879e-05
0.00139645
-4.33063e-05
0.00139481
-5.94168e-05
0.00139255
-7.57977e-05
0.00138968
-9.24251e-05
0.0013862
-0.000109272
0.00138211
-0.000126311
0.00137741
-0.000143508
0.00137213
-0.00016083
0.00136626
-0.000178237
0.00135983
-0.000195688
0.00135285
-0.000213138
0.00134534
-0.000230538
0.00133731
-0.000247837
0.0013288
-0.000264979
0.00131983
-0.000281901
0.00131042
-0.000298532
0.0013006
-0.000314807
0.00129045
-0.000330675
0.00128001
-0.000346086
0.00126929
-0.000360917
0.00125827
-0.000375051
0.0012469
-0.000388163
0.00123529
-0.000400362
-0.000410916
0.00122383
0.000966417
0.000306162
-0.000950358
0.000982375
0.000304594
0.000998215
0.000302788
0.00101392
0.000300781
0.00102946
0.00029857
0.00104482
0.000296149
0.00105999
0.000293508
0.00107496
0.00029064
0.00108971
0.000287539
0.00110426
0.0002842
0.00111858
0.000280618
0.00113268
0.00027679
0.00114655
0.000272709
0.00116018
0.00026837
0.00117356
0.000263768
0.00118668
0.000258894
0.00119952
0.000253743
0.00121207
0.000248306
0.00122432
0.000242575
0.00123625
0.000236544
0.00124785
0.000230203
0.00125911
0.000223547
0.00127
0.000216567
0.00128052
0.000209258
0.00129065
0.000201612
0.00130038
0.000193623
0.0013097
0.000185286
0.00131859
0.000176595
0.00132705
0.000167545
0.00133505
0.000158132
0.00134258
0.000148351
0.00134963
0.000138199
0.0013562
0.000127675
0.00136226
0.000116775
0.00136781
0.000105499
0.00137284
9.38471e-05
0.00137733
8.18211e-05
0.00138128
6.94223e-05
0.00138467
5.66559e-05
0.00138751
4.35292e-05
0.00138977
3.00385e-05
0.00139146
1.62049e-05
0.00139258
2.05408e-06
0.00139311
-1.25152e-05
0.00139305
-2.74281e-05
0.00139239
-4.26524e-05
0.00139114
-5.81674e-05
0.0013893
-7.3953e-05
0.00138686
-8.99868e-05
0.00138383
-0.000106244
0.00138022
-0.000122698
0.00137603
-0.000139317
0.00137127
-0.00015607
0.00136595
-0.000172919
0.00136009
-0.000189825
0.0013537
-0.000206746
0.00134679
-0.000223635
0.0013394
-0.000240444
0.00133154
-0.000257117
0.00132323
-0.000273593
0.00131451
-0.000289813
0.00130543
-0.000305726
0.00129604
-0.000321282
0.00128635
-0.000336397
0.00127634
-0.00035091
0.00126601
-0.000364718
0.00125538
-0.000377537
0.00124486
-0.000389844
-0.000400778
0.00123473
0.000957323
0.000290128
-0.000941289
0.000973264
0.000288653
0.000989102
0.000286951
0.00100482
0.000285061
0.00102041
0.000282986
0.00103584
0.000280718
0.0010511
0.000278249
0.00106617
0.000275569
0.00108103
0.000272671
0.00109569
0.000269548
0.00111011
0.000266192
0.00112431
0.000262597
0.00113826
0.000258758
0.00115196
0.00025467
0.0011654
0.000250325
0.00117857
0.000245719
0.00119147
0.000240846
0.00120408
0.000235697
0.00121639
0.000230268
0.00122838
0.00022455
0.00124005
0.000218537
0.00125137
0.000212222
0.00126234
0.000205596
0.00127295
0.000198655
0.00128317
0.00019139
0.001293
0.000183796
0.00130242
0.000175866
0.00131142
0.000167596
0.00131998
0.000158979
0.0013281
0.00015001
0.00133577
0.000140687
0.00134296
0.000131004
0.00134968
0.00012096
0.0013559
0.000110552
0.00136162
9.97776e-05
0.00136683
8.8638e-05
0.00137152
7.71334e-05
0.00137568
6.52647e-05
0.00137929
5.3037e-05
0.00138237
4.04556e-05
0.00138489
2.75157e-05
0.00138685
1.42424e-05
0.00138826
6.45634e-07
0.00138911
-1.33591e-05
0.00138938
-2.77013e-05
0.00138908
-4.23518e-05
0.0013882
-5.7292e-05
0.00138675
-7.25033e-05
0.00138473
-8.79651e-05
0.00138214
-0.000103654
0.00137899
-0.000119544
0.00137528
-0.000135607
0.00137102
-0.000151812
0.00136622
-0.000168124
0.00136091
-0.000184506
0.00135508
-0.000200919
0.00134876
-0.000217318
0.00134197
-0.000233655
0.00133473
-0.000249879
0.00132708
-0.000265937
0.00131905
-0.000281781
0.00131068
-0.000297361
0.001302
-0.000312606
0.001293
-0.000327395
0.00128367
-0.000341575
0.00127406
-0.00035511
0.00126434
-0.000367816
0.00125492
-0.000380423
-0.000391686
0.00124583
0.00094904
0.000274103
-0.000933015
0.000964967
0.000272726
0.000980791
0.000271127
0.000996503
0.000269349
0.00101209
0.000267398
0.00102754
0.000265268
0.00104284
0.000262952
0.00105797
0.000260442
0.00107291
0.000257729
0.00108765
0.000254807
0.00110217
0.000251667
0.00111647
0.000248302
0.00113052
0.000244705
0.00114432
0.000240869
0.00115786
0.000236788
0.00117112
0.000232455
0.00118411
0.000227864
0.0011968
0.000223008
0.00120918
0.000217883
0.00122125
0.00021248
0.001233
0.000206793
0.0012444
0.000200816
0.00125546
0.000194542
0.00126615
0.000187964
0.00127646
0.000181076
0.00128639
0.00017387
0.00129591
0.000166342
0.00130502
0.000158486
0.0013137
0.000150295
0.00132195
0.000141765
0.00132975
0.000132891
0.00133708
0.000123669
0.00134395
0.000114096
0.00135033
0.000104169
0.00135622
9.38871e-05
0.00136161
8.32484e-05
0.00136649
7.22532e-05
0.00137085
6.0902e-05
0.00137469
4.91994e-05
0.001378
3.71485e-05
0.00138077
2.47444e-05
0.00138299
1.20163e-05
0.00138468
-1.04578e-06
0.00138583
-1.45041e-05
0.00138642
-2.82938e-05
0.00138646
-4.23893e-05
0.00138594
-5.6774e-05
0.00138487
-7.14309e-05
0.00138324
-8.63405e-05
0.00138107
-0.000101481
0.00137836
-0.000116828
0.0013751
-0.000132356
0.00137133
-0.000148033
0.00136703
-0.000163829
0.00136223
-0.000179709
0.00135695
-0.000195634
0.00135119
-0.000211563
0.00134499
-0.000227451
0.00133836
-0.000243253
0.00133135
-0.000258924
0.00132399
-0.000274419
0.0013163
-0.000289672
0.00130828
-0.000304588
0.00129993
-0.000319047
0.00129132
-0.000332965
0.00128262
-0.000346404
0.00127406
-0.000359254
0.00126595
-0.000372321
-0.000383802
0.00125807
0.000941561
0.000258068
-0.000925527
0.000957494
0.000256794
0.000973319
0.000255302
0.000989028
0.000253639
0.00100461
0.000251812
0.00102007
0.000249816
0.00103537
0.000247645
0.00105052
0.000245293
0.0010655
0.000242753
0.00108029
0.000240018
0.00109488
0.00023708
0.00110925
0.000233932
0.00112339
0.000230566
0.00113728
0.000226975
0.00115092
0.000223152
0.00116428
0.000219089
0.00117736
0.000214781
0.00119015
0.000210219
0.00120264
0.000205399
0.0012148
0.000200312
0.00122664
0.000194953
0.00123815
0.000189315
0.0012493
0.000183391
0.00126009
0.000177175
0.0012705
0.000170661
0.00128053
0.000163841
0.00129016
0.00015671
0.00129938
0.000149263
0.00130819
0.000141492
0.00131656
0.000133394
0.00132449
0.000124963
0.00133196
0.000116194
0.00133897
0.000107085
0.00134551
9.76311e-05
0.00135157
8.78309e-05
0.00135713
7.7683e-05
0.0013622
6.71863e-05
0.00136676
5.63409e-05
0.00137081
4.51509e-05
0.00137434
3.36166e-05
0.00137735
2.17347e-05
0.00137983
9.53808e-06
0.00138179
-3.00782e-06
0.00138322
-1.59369e-05
0.00138412
-2.91909e-05
0.00138448
-4.27491e-05
0.0013843
-5.6597e-05
0.00138359
-7.07184e-05
0.00138235
-8.50954e-05
0.00138057
-9.97076e-05
0.00137828
-0.000114532
0.00137546
-0.000129544
0.00137215
-0.000144716
0.00136833
-0.000160017
0.00136404
-0.000175415
0.00135928
-0.000190874
0.00135407
-0.000206355
0.00134844
-0.000221819
0.00134242
-0.000237227
0.00133603
-0.000252535
0.0013293
-0.000267688
0.00132223
-0.000282604
0.00131484
-0.000297195
0.00130719
-0.000311399
0.00129946
-0.000325235
0.00129187
-0.000338817
0.00128462
-0.000352005
0.00127778
-0.000365474
-0.000376281
0.00127025
0.000934884
0.000242012
-0.000918828
0.000950837
0.000240841
0.00096668
0.000239458
0.000982406
0.000237914
0.000998004
0.000236214
0.00101347
0.000234354
0.00102878
0.000232329
0.00104394
0.000230132
0.00105894
0.000227759
0.00107375
0.000225204
0.00108837
0.000222458
0.00110279
0.000219516
0.00111698
0.00021637
0.00113094
0.000213014
0.00114466
0.000209439
0.00115811
0.000205639
0.00117128
0.000201606
0.00118417
0.000197334
0.00119675
0.000192815
0.00120902
0.000188042
0.00122097
0.000183008
0.00123257
0.000177708
0.00124383
0.000172133
0.00125473
0.000166278
0.00126525
0.000160136
0.00127539
0.0001537
0.00128514
0.000146964
0.00129448
0.000139921
0.00130341
0.000132568
0.00131191
0.000124896
0.00131997
0.000116902
0.00132758
0.000108581
0.00133474
9.99281e-05
0.00134143
9.09399e-05
0.00134764
8.16137e-05
0.00135338
7.19475e-05
0.00135863
6.19393e-05
0.00136338
5.15892e-05
0.00136763
4.09002e-05
0.00137138
2.98696e-05
0.00137461
1.8498e-05
0.00137733
6.81782e-06
0.00137955
-5.2293e-06
0.00138126
-1.76438e-05
0.00138245
-3.0378e-05
0.00138312
-4.34161e-05
0.00138326
-5.67448e-05
0.00138289
-7.03493e-05
0.00138201
-8.42128e-05
0.00138062
-9.83164e-05
0.00137873
-0.000112639
0.00137634
-0.000127156
0.00137347
-0.000141843
0.00137012
-0.000156671
0.00136631
-0.000171609
0.00136206
-0.000186624
0.00135739
-0.000201681
0.00135232
-0.000216746
0.00134687
-0.000231779
0.00134106
-0.000246732
0.00133492
-0.000261539
0.00132844
-0.000276133
0.00132173
-0.000290478
0.00131492
-0.000304592
0.00130824
-0.000318552
0.0013018
-0.000332383
0.00129561
-0.000345808
0.00128942
-0.000359293
-0.00036827
0.00128141
0.000929031
0.000225933
-0.000912952
0.000945011
0.000224862
0.000960882
0.000223587
0.000976635
0.000222161
0.000992261
0.000220588
0.00100775
0.000218866
0.00102309
0.000216988
0.00103827
0.000214949
0.00105329
0.000212743
0.00106813
0.000210366
0.00108278
0.00020781
0.00109722
0.000205069
0.00111145
0.000202138
0.00112546
0.000199008
0.00113923
0.000195674
0.00115274
0.000192127
0.00116598
0.000188362
0.00117895
0.00018437
0.00119161
0.000180146
0.00120398
0.00017568
0.00121602
0.000170968
0.00122772
0.000166
0.00123909
0.000160771
0.00125009
0.000155273
0.00126073
0.0001495
0.00127098
0.000143444
0.00128085
0.0001371
0.00129031
0.00013046
0.00129936
0.000123519
0.00130798
0.000116271
0.00131617
0.00010871
0.00132392
0.000100831
0.00133122
9.26294e-05
0.00133806
8.41005e-05
0.00134443
7.52413e-05
0.00135033
6.60488e-05
0.00135575
5.65205e-05
0.00136068
4.66564e-05
0.00136513
3.64577e-05
0.00136908
2.59189e-05
0.00137253
1.50478e-05
0.00137548
3.86635e-06
0.00137795
-7.69667e-06
0.00137991
-1.96099e-05
0.00138137
-3.18403e-05
0.00138233
-4.43752e-05
0.00138279
-5.72026e-05
0.00138275
-7.03089e-05
0.00138222
-8.36785e-05
0.00138119
-9.72934e-05
0.00137969
-0.000111134
0.00137771
-0.000125178
0.00137527
-0.0001394
0.00137237
-0.000153776
0.00136904
-0.000168275
0.00136528
-0.000182868
0.00136112
-0.000197523
0.00135658
-0.000212206
0.00135168
-0.000226873
0.00134642
-0.000241475
0.00134085
-0.000255964
0.00133503
-0.000270321
0.00132913
-0.00028457
0.00132329
-0.000298752
0.00131761
-0.000312871
0.00131194
-0.000326715
0.00130605
-0.000339916
0.00129914
-0.000352385
-0.000361064
0.00129193
0.000924044
0.000209829
-0.00090794
0.00094005
0.000208855
0.000955951
0.000207686
0.000971737
0.000206375
0.000987397
0.000204928
0.00100292
0.000203341
0.0010183
0.00020161
0.00103352
0.000199729
0.00104857
0.000197691
0.00106344
0.000195492
0.00107813
0.000193126
0.00109261
0.000190586
0.00110688
0.000187867
0.00112093
0.000184962
0.00113474
0.000181864
0.0011483
0.000178566
0.0011616
0.000175063
0.00117462
0.000171346
0.00118736
0.00016741
0.00119979
0.000163246
0.00121191
0.000158847
0.00122371
0.000154207
0.00123516
0.000149317
0.00124626
0.000144172
0.001257
0.000138763
0.00126736
0.000133083
0.00127733
0.000127127
0.00128691
0.000120886
0.00129607
0.000114354
0.00130482
0.000107525
0.00131314
0.000100392
0.00132102
9.29507e-05
0.00132845
8.51945e-05
0.00133543
7.71192e-05
0.00134195
6.87206e-05
0.00134801
5.99948e-05
0.00135359
5.09387e-05
0.00135869
4.15521e-05
0.00136332
3.18333e-05
0.00136746
2.17761e-05
0.00137111
1.13963e-05
0.00137429
6.92385e-07
0.00137699
-1.03957e-05
0.0013792
-2.18209e-05
0.00138092
-3.35627e-05
0.00138215
-4.56108e-05
0.00138291
-5.79543e-05
0.00138318
-7.05806e-05
0.00138297
-8.34752e-05
0.0013823
-9.66212e-05
0.00138117
-0.00011
0.00137958
-0.000123591
0.00137755
-0.00013737
0.00137509
-0.000151314
0.00137221
-0.000165396
0.00136893
-0.000179588
0.00136526
-0.000193857
0.00136123
-0.000208169
0.00135684
-0.000222487
0.00135214
-0.000236777
0.00134721
-0.000251034
0.00134217
-0.000265277
0.00133712
-0.000279521
0.00133208
-0.000293713
0.00132688
-0.000307674
0.00132116
-0.000320995
0.00131463
-0.000333381
0.00130671
-0.000344463
-0.000352759
0.0012984
0.000919967
0.000193696
-0.000903834
0.000936003
0.000192819
0.000951936
0.000191754
0.000967756
0.000190555
0.000983453
0.00018923
0.000999017
0.000187778
0.00101444
0.000186191
0.0010297
0.000184465
0.0010448
0.000182594
0.00105972
0.000180573
0.00107445
0.000178395
0.00108898
0.000176056
0.0011033
0.000173548
0.00111739
0.000170866
0.00113125
0.000168004
0.00114487
0.000164954
0.00115822
0.00016171
0.0011713
0.000158265
0.0011841
0.000154613
0.0011966
0.000150747
0.00120878
0.000146658
0.00122065
0.00014234
0.00123218
0.000137786
0.00124336
0.000132989
0.00125419
0.000127939
0.00126464
0.000122632
0.00127471
0.000117058
0.00128438
0.000111212
0.00129365
0.000105084
0.00130251
9.86702e-05
0.00131094
9.1962e-05
0.00131893
8.49533e-05
0.00132649
7.76382e-05
0.0013336
7.00112e-05
0.00134025
6.20673e-05
0.00134644
5.38017e-05
0.00135217
4.52109e-05
0.00135743
3.62936e-05
0.00136222
2.70448e-05
0.00136653
1.74614e-05
0.00137037
7.56254e-06
0.00137375
-2.68567e-06
0.00137666
-1.33066e-05
0.00137909
-2.42582e-05
0.00138106
-3.55277e-05
0.00138255
-4.71063e-05
0.00138358
-5.89843e-05
0.00138415
-7.11499e-05
0.00138427
-8.35892e-05
0.00138393
-9.62866e-05
0.00138316
-0.000109224
0.00138195
-0.000122382
0.00138032
-0.000135739
0.00137827
-0.000149271
0.00137583
-0.000162954
0.001373
-0.000176761
0.00136981
-0.000190662
0.00136627
-0.000204631
0.00136243
-0.000218647
0.00135836
-0.000232706
0.00135414
-0.000246812
0.00134981
-0.000260944
0.0013453
-0.000275011
0.00134039
-0.000288808
0.00133476
-0.000302042
0.00132814
-0.000314373
0.00132067
-0.000325908
0.0013127
-0.000336499
-0.000346682
0.00130662
0.000916834
0.000177524
-0.000900663
0.000932908
0.000176745
0.000948879
0.000175783
0.000964738
0.000174696
0.000980475
0.000173493
0.000996081
0.000172172
0.00101155
0.000170727
0.00102686
0.000169154
0.001042
0.000167447
0.00105698
0.000165601
0.00107176
0.00016361
0.00108635
0.000161469
0.00110072
0.000159172
0.00111488
0.000156713
0.0011288
0.000154084
0.00114247
0.000151281
0.00115588
0.000148295
0.00116903
0.000145122
0.00118189
0.000141753
0.00119445
0.000138182
0.00120671
0.000134402
0.00121865
0.000130405
0.00123025
0.000126183
0.00124151
0.00012173
0.00125241
0.000117038
0.00126294
0.000112099
0.00127309
0.000106906
0.00128285
0.00010145
0.00129222
9.57239e-05
0.00130117
8.97207e-05
0.00130969
8.34328e-05
0.00131779
7.6853e-05
0.00132546