/*--------------------------------*- C++ -*----------------------------------*\
| =========                 |                                                 |
| \\      /  F ield         | OpenFOAM: The Open Source CFD Toolbox           |
|  \\    /   O peration     | Version:  2312                                  |
|   \\  /    A nd           | Website:  www.openfoam.com                      |
|    \\/     M anipulation  |                                                 |
\*---------------------------------------------------------------------------*/
FoamFile
{
    version     2.0;
    format      ascii;
    arch        "LSB;label=32;scalar=64";
    class       volVectorField;
    location    "800";
    object      U;
}
// * * * * * * * * * * * * * * * * * * * * * * * * * * * * * * * * * * * * * //

dimensions      [0 1 -1 0 0 0 0];

internalField   nonuniform List<vector> 
76025
(
(0.0379748 -0.00530726 0)
(0.0381724 -0.0053114 -5.89676e-22)
(0.0383676 -0.00531389 0)
(0.0385581 -0.00530923 0)
(0.0387701 -0.00530377 1.43176e-21)
(0.0389813 -0.00527131 3.13171e-21)
(0.0392064 -0.00525322 -5.63552e-21)
(0.0394362 -0.00521297 2.45818e-21)
(0.039656 -0.00517389 9.09696e-22)
(0.0398729 -0.00512352 -9.55171e-22)
(0.0400925 -0.00506545 3.68109e-23)
(0.0403163 -0.00499506 -3.1477e-21)
(0.040542 -0.00491925 4.17589e-21)
(0.0407595 -0.00483247 0)
(0.0409584 -0.00472533 -1.18115e-21)
(0.0411647 -0.0046271 0)
(0.0413616 -0.0045001 0)
(0.041573 -0.00437588 0)
(0.041778 -0.00423262 -1.30936e-21)
(0.0419781 -0.00409124 1.41275e-21)
(0.0421702 -0.00393001 1.45893e-21)
(0.042354 -0.00376421 4.44123e-21)
(0.0425248 -0.0035872 -2.99803e-21)
(0.0426836 -0.00339599 -4.78166e-21)
(0.0428342 -0.00319929 -8.61435e-23)
(0.0429882 -0.00299595 -1.78535e-21)
(0.0431303 -0.00276347 5.16196e-21)
(0.0432745 -0.00253585 -5.20767e-21)
(0.0434161 -0.00228506 1.77197e-21)
(0.0435532 -0.00201082 -1.81856e-21)
(0.043679 -0.00175688 -1.87512e-21)
(0.0438023 -0.00148905 3.95415e-21)
(0.043907 -0.00119373 -6.00346e-21)
(0.0440109 -0.000902058 -1.0481e-21)
(0.0441038 -0.000587009 5.30799e-21)
(0.0441895 -0.000272832 2.12667e-23)
(0.04427 6.61567e-05 -1.08828e-21)
(0.0443377 0.000414683 5.81409e-22)
(0.0443935 0.000760386 2.38299e-23)
(0.0444359 0.0011248 -8.94386e-22)
(0.0444646 0.00149466 6.09083e-22)
(0.0444889 0.00188126 -3.07319e-22)
(0.0445056 0.00228399 6.25543e-22)
(0.0445049 0.00268862 -1.2492e-21)
(0.0444866 0.00310746 -1.2728e-21)
(0.0444587 0.00353665 2.44037e-21)
(0.0444238 0.00397827 2.51648e-21)
(0.0443663 0.00443182 -7.55155e-21)
(0.044286 0.00489887 4.85857e-21)
(0.0441961 0.00537698 -9.90997e-23)
(0.0440905 0.00586765 -1.2272e-20)
(0.0439648 0.00637145 -4.76552e-21)
(0.043821 0.00688424 4.94727e-21)
(0.0436525 0.00741462 0)
(0.0434452 0.00795143 -4.66642e-21)
(0.0432081 0.00850272 -4.85256e-21)
(0.0429492 0.00906023 9.84153e-23)
(0.0426486 0.00963596 -4.67752e-21)
(0.0423162 0.0102315 4.64019e-21)
(0.0419485 0.0108622 -1.36185e-20)
(0.041581 0.0114314 -9.40966e-21)
(0.0411368 0.0120624 -4.65061e-22)
(0.0406577 0.0127049 0)
(0.040145 0.0133514 2.26603e-20)
(0.0395819 0.0140017 -8.55598e-21)
(0.0389714 0.0146536 4.5161e-21)
(0.0383308 0.0153348 -8.75974e-21)
(0.0376423 0.0160103 9.2401e-21)
(0.0369866 0.0167075 1.80126e-20)
(0.0379181 -0.00563882 -5.76586e-22)
(0.0381325 -0.00564635 -1.95461e-21)
(0.038345 -0.00564797 2.53746e-21)
(0.038555 -0.00564373 0)
(0.0387655 -0.00563243 -3.87526e-21)
(0.038985 -0.00561145 -2.13031e-22)
(0.0392052 -0.00558215 3.30213e-21)
(0.0394355 -0.00554429 0)
(0.0396698 -0.00549844 3.95013e-23)
(0.039904 -0.00544477 9.75118e-22)
(0.0401368 -0.00538217 -1.02105e-21)
(0.0403702 -0.00531029 4.62719e-23)
(0.0406045 -0.00522905 0)
(0.0408408 -0.00513776 0)
(0.0410743 -0.00503513 -2.5553e-21)
(0.0412981 -0.00492398 6.30747e-21)
(0.0415209 -0.00480054 1.35426e-21)
(0.0417378 -0.0046682 -4.194e-21)
(0.0419562 -0.00452398 2.78647e-21)
(0.0421695 -0.00437087 -1.43659e-21)
(0.0423822 -0.00420547 1.59434e-21)
(0.0425897 -0.00403036 -3.07699e-21)
(0.0427897 -0.00384396 3.26956e-21)
(0.0429813 -0.00364572 -5.01229e-21)
(0.0431637 -0.00343653 3.37078e-21)
(0.0433387 -0.00321705 5.28379e-21)
(0.0435093 -0.00298568 -3.57149e-21)
(0.0436666 -0.0027432 0)
(0.0438189 -0.00248732 0)
(0.0439678 -0.00221871 -2.00644e-21)
(0.0441073 -0.00194293 0)
(0.0442393 -0.00165573 -2.11313e-21)
(0.0443651 -0.001355 2.13782e-21)
(0.0444788 -0.00104283 -3.2641e-21)
(0.0445859 -0.000717146 4.88372e-23)
(0.0446823 -0.000380764 -1.1176e-21)
(0.0447714 -2.92764e-05 0)
(0.0448522 0.000330045 -2.40477e-21)
(0.04492 0.000699179 1.85237e-21)
(0.0449755 0.00108097 -1.55911e-21)
(0.0450184 0.00147562 9.63044e-22)
(0.0450508 0.00188571 -1.13279e-23)
(0.0450704 0.00230365 3.58696e-22)
(0.0450727 0.00272847 -3.33685e-22)
(0.0450593 0.00316448 2.70676e-21)
(0.0450313 0.00361485 -1.35831e-21)
(0.0449879 0.00407461 -1.38941e-21)
(0.0449244 0.00454186 2.57784e-21)
(0.0448403 0.00502567 7.87028e-21)
(0.0447392 0.00552423 -5.16382e-23)
(0.0446194 0.00603381 7.71811e-21)
(0.0444777 0.00655585 -2.57788e-21)
(0.0443134 0.00708873 -7.56923e-21)
(0.0441241 0.0076303 5.08174e-21)
(0.043906 0.00817919 0)
(0.0436572 0.00874896 1.50766e-20)
(0.0433829 0.00932638 -4.8708e-25)
(0.0430754 0.00991851 -4.96409e-21)
(0.0427354 0.0105239 -5.05976e-21)
(0.0423663 0.0111401 0)
(0.0419656 0.0117641 4.65106e-21)
(0.0415211 0.0124014 1.4343e-20)
(0.0410379 0.0130488 0)
(0.0405198 0.0137045 -9.40539e-21)
(0.0399616 0.0143669 5.30697e-21)
(0.0393518 0.0150474 -9.60479e-21)
(0.038702 0.0157462 4.80373e-21)
(0.038014 0.0164211 -9.34986e-21)
(0.0372976 0.0171548 -9.33479e-21)
(0.0378442 -0.00598474 3.09938e-21)
(0.0380757 -0.00599102 -1.82978e-21)
(0.038306 -0.00599185 7.1788e-22)
(0.0385377 -0.0059874 -3.12566e-21)
(0.0387673 -0.005975 3.92524e-21)
(0.0389976 -0.00595471 3.53461e-21)
(0.0392286 -0.00592472 -4.43805e-21)
(0.0394627 -0.00588596 0)
(0.0397014 -0.00583767 4.46141e-23)
(0.0399441 -0.0057801 0)
(0.0401887 -0.00571304 1.13308e-21)
(0.0404341 -0.00563661 -1.13244e-21)
(0.0406796 -0.00555055 -6.17456e-21)
(0.0409255 -0.0054543 4.91767e-21)
(0.0411727 -0.00534757 -1.27848e-21)
(0.0414179 -0.00522951 -4.09351e-21)
(0.0416607 -0.00510119 1.38255e-21)
(0.0418988 -0.00496181 1.4242e-21)
(0.0421331 -0.00481218 4.60578e-21)
(0.0423632 -0.00465135 -3.05965e-21)
(0.0425892 -0.00447945 -1.64403e-21)
(0.0428109 -0.0042961 3.3648e-21)
(0.0430278 -0.00410111 -1.61704e-21)
(0.0432397 -0.00389377 -1.79928e-21)
(0.0434459 -0.00367416 0)
(0.0436445 -0.00344264 1.90419e-21)
(0.0438352 -0.00320011 1.91538e-21)
(0.0440171 -0.00294543 -1.8725e-21)
(0.0441902 -0.00267838 0)
(0.0443552 -0.00239965 4.14427e-21)
(0.0445126 -0.00210879 -2.1732e-21)
(0.0446608 -0.0018062 -9.73224e-23)
(0.0447992 -0.00149195 0)
(0.0449276 -0.00116473 1.11984e-21)
(0.0450462 -0.000825401 -3.51171e-21)
(0.0451546 -0.000473875 2.38294e-21)
(0.0452522 -0.000110059 0)
(0.0453389 0.000264954 1.88378e-21)
(0.0454142 0.000652101 -1.93988e-21)
(0.045477 0.00105154 -3.22821e-22)
(0.0455266 0.00146342 0)
(0.0455625 0.00188767 -6.91796e-22)
(0.0455846 0.00232355 -3.54802e-22)
(0.0455904 0.00276708 3.37189e-22)
(0.0455797 0.00322136 -2.07237e-21)
(0.0455522 0.00368736 -1.43059e-21)
(0.0455072 0.00416388 2.72426e-21)
(0.0454432 0.00465163 -2.7788e-21)
(0.0453588 0.00515305 2.8175e-21)
(0.0452545 0.0056672 -2.73775e-21)
(0.0451298 0.00619259 -2.66906e-21)
(0.0449828 0.00672946 5.55946e-21)
(0.044812 0.00727745 0)
(0.044616 0.00783622 5.49884e-21)
(0.0443922 0.00840654 1.28199e-22)
(0.0441391 0.00899091 -5.31892e-21)
(0.0438575 0.00958657 -5.27829e-21)
(0.0435452 0.0101947 1.0498e-20)
(0.043201 0.0108154 -1.24936e-22)
(0.0428245 0.011449 5.32964e-21)
(0.0424152 0.012092 -1.0613e-20)
(0.0419688 0.0127446 -5.42411e-21)
(0.041484 0.0134095 -8.79914e-24)
(0.0409613 0.0140854 -5.1213e-21)
(0.0403977 0.0147722 -4.85387e-21)
(0.0397867 0.0154695 -1.5571e-20)
(0.0391365 0.0161814 0)
(0.038443 0.0168775 -5.08631e-21)
(0.0377244 0.017648 5.09161e-21)
(0.0377804 -0.00635488 0)
(0.0380186 -0.00636015 -6.79549e-22)
(0.0382604 -0.00635965 -3.84248e-21)
(0.0385077 -0.00635371 3.0855e-21)
(0.0387567 -0.00634011 2.70856e-21)
(0.0390055 -0.00631804 -4.4519e-21)
(0.039254 -0.0062868 9.43794e-22)
(0.0395022 -0.00624627 -1.04176e-21)
(0.0397514 -0.00619605 -1.04862e-21)
(0.0400025 -0.00613588 -4.61915e-21)
(0.040256 -0.00606553 4.64599e-21)
(0.0405114 -0.0059849 5.04292e-21)
(0.0407679 -0.00589393 -1.13485e-21)
(0.0410246 -0.00579243 -5.34694e-21)
(0.0412817 -0.00568008 4.1424e-21)
(0.0415389 -0.00555646 -1.47553e-21)
(0.0417952 -0.00542173 1.52919e-21)
(0.0420495 -0.00527565 1.58287e-21)
(0.0423004 -0.00511842 -4.81906e-21)
(0.0425474 -0.00494981 1.55743e-21)
(0.0427896 -0.00476972 1.66786e-21)
(0.0430268 -0.00457777 0)
(0.0432588 -0.0043737 3.75518e-21)
(0.0434856 -0.00415725 -1.85059e-21)
(0.0437066 -0.00392832 -3.88514e-21)
(0.0439213 -0.00368705 -4.04644e-21)
(0.0441288 -0.0034334 8.05018e-21)
(0.0443287 -0.00316713 -4.16063e-21)
(0.0445202 -0.00288834 0)
(0.044703 -0.00259703 -4.37966e-21)
(0.0448766 -0.00229338 -7.09051e-23)
(0.0450403 -0.00197776 4.52687e-21)
(0.0451935 -0.00164988 -2.37758e-21)
(0.0453358 -0.00130933 6.06073e-21)
(0.0454671 -0.000956262 -1.18604e-21)
(0.0455872 -0.000590712 0)
(0.0456955 -0.000212727 0)
(0.0457917 0.000177657 6.77898e-22)
(0.0458751 0.000580282 6.63342e-22)
(0.0459449 0.000995234 3.54863e-22)
(0.0460005 0.0014222 -1.13455e-23)
(0.0460413 0.00186139 3.55138e-22)
(0.0460674 0.0023138 0)
(0.0460766 0.00277413 -3.33281e-23)
(0.0460686 0.00324529 0)
(0.0460429 0.00372825 1.40921e-21)
(0.0459987 0.00422314 9.52446e-24)
(0.0459348 0.00472997 -4.44169e-21)
(0.0458503 0.00524925 0)
(0.0457446 0.00578093 -2.8975e-21)
(0.0456171 0.00632451 2.87131e-21)
(0.0454666 0.00687981 -5.59763e-21)
(0.0452916 0.00744666 0)
(0.0450909 0.00802495 -1.70169e-20)
(0.0448629 0.00861478 1.23521e-22)
(0.0446064 0.00921692 5.61543e-21)
(0.0443209 0.00983116 5.57742e-21)
(0.0440052 0.0104575 0)
(0.0436581 0.011096 0)
(0.0432787 0.0117466 -5.36962e-21)
(0.0428661 0.012408 1.06922e-20)
(0.0424181 0.0130801 1.06491e-20)
(0.0419328 0.0137639 0)
(0.0414087 0.014459 -1.11322e-20)
(0.0408439 0.0151656 0)
(0.0402343 0.0158818 1.59357e-20)
(0.039586 0.0166134 -5.40384e-21)
(0.0388939 0.0173316 -5.3925e-21)
(0.0381675 0.0181277 -5.68039e-21)
(0.0377341 -0.00675026 0)
(0.0379766 -0.00675637 0)
(0.0382242 -0.00675581 -8.14259e-22)
(0.0384798 -0.00674905 3.54424e-21)
(0.038741 -0.00673413 -4.44886e-21)
(0.0390051 -0.00671017 9.48603e-22)
(0.0392707 -0.00667682 0)
(0.0395366 -0.0066338 1.06023e-21)
(0.0398024 -0.00658087 0)
(0.0400683 -0.00651774 2.45681e-21)
(0.0403346 -0.00644409 1.83511e-22)
(0.0406017 -0.00635963 -2.55526e-21)
(0.0408695 -0.00626413 0)
(0.0411376 -0.00615745 2.90425e-21)
(0.0414056 -0.00603942 -8.86344e-21)
(0.0416733 -0.00590985 6.05909e-21)
(0.0419403 -0.00576857 -7.9036e-21)
(0.0422061 -0.00561545 1.61804e-21)
(0.0424699 -0.0054504 -1.7388e-21)
(0.0427308 -0.00527332 1.71578e-21)
(0.0429879 -0.0050841 1.82391e-21)
(0.0432403 -0.00488256 -5.57981e-21)
(0.0434875 -0.00466854 -3.84404e-21)
(0.0437289 -0.00444192 0)
(0.0439641 -0.00420256 4.11711e-21)
(0.0441926 -0.00395039 2.15016e-21)
(0.0444141 -0.00368532 -6.33044e-21)
(0.0446279 -0.00340729 2.15234e-21)
(0.0448335 -0.00311629 -4.56348e-21)
(0.0450304 -0.00281233 6.84079e-21)
(0.0452178 -0.00249553 -2.42738e-21)
(0.0453951 -0.00216598 1.24339e-21)
(0.0455618 -0.00182359 0)
(0.0457172 -0.00146825 -1.24612e-21)
(0.045861 -0.00109995 -1.27538e-21)
(0.0459927 -0.000718754 0)
(0.0461118 -0.00032472 1.39674e-21)
(0.0462177 8.20094e-05 -2.08796e-21)
(0.0463097 0.000501277 1.41794e-21)
(0.0463872 0.000933252 -7.3056e-22)
(0.0464497 0.00137763 -1.24652e-23)
(0.0464964 0.00183463 -5.82286e-22)
(0.0465275 0.00230552 1.94083e-22)
(0.0465408 0.00278476 7.61907e-22)
(0.0465362 0.00327476 3.08197e-23)
(0.0465129 0.00377651 4.64186e-21)
(0.0464703 0.00429013 0)
(0.0464075 0.00481554 3.00577e-21)
(0.0463235 0.00535292 -6.55232e-23)
(0.0462176 0.00590233 -3.04046e-21)
(0.0460893 0.00646358 0)
(0.0459375 0.00703649 -3.02537e-21)
(0.0457611 0.00762099 3.00112e-21)
(0.0455589 0.0082171 5.84668e-21)
(0.0453298 0.00882495 0)
(0.0450726 0.00944489 -1.17181e-20)
(0.0447865 0.010077 1.17938e-20)
(0.0444705 0.0107213 -1.17395e-20)
(0.0441233 0.0113777 -1.48722e-22)
(0.043744 0.0120462 0)
(0.0433315 0.0127263 -5.79515e-21)
(0.0428842 0.0134178 5.62639e-21)
(0.0424001 0.014121 6.05379e-21)
(0.0418767 0.0148362 1.12034e-20)
(0.0413126 0.0155637 -1.74885e-20)
(0.0407057 0.0163008 1.14433e-20)
(0.0400618 0.0170528 -5.72066e-21)
(0.0393731 0.0177954 6.02811e-21)
(0.0386438 0.0186177 1.68463e-20)
(0.0376891 -0.00717086 3.03046e-21)
(0.0379443 -0.00717852 2.71827e-22)
(0.0382015 -0.00717883 -3.29419e-21)
(0.0384655 -0.00717223 0)
(0.0387355 -0.00715666 9.50114e-22)
(0.0390102 -0.00713126 0)
(0.0392886 -0.00709576 -2.25553e-21)
(0.0395695 -0.00705 -1.36719e-22)
(0.0398518 -0.00699381 3.60332e-21)
(0.0401346 -0.00692701 -1.30492e-21)
(0.0404175 -0.00684932 -1.30439e-21)
(0.0407002 -0.00676044 -1.42713e-21)
(0.0409825 -0.00666006 0)
(0.0412644 -0.00654793 0)
(0.0415456 -0.00642386 1.53599e-21)
(0.0418258 -0.00628768 1.59341e-21)
(0.0421048 -0.00613923 -3.44005e-21)
(0.0423823 -0.00597838 3.42834e-21)
(0.0426577 -0.00580499 3.61352e-21)
(0.0429304 -0.00561894 -3.78828e-21)
(0.0431999 -0.00542012 7.59539e-21)
(0.0434652 -0.00520841 3.05822e-23)
(0.0437258 -0.00498372 -4.10886e-21)
(0.0439808 -0.00474593 -2.14657e-21)
(0.0442296 -0.00449496 -4.36635e-21)
(0.0444716 -0.00423074 4.36788e-21)
(0.0447062 -0.00395322 4.59848e-21)
(0.0449328 -0.00366236 -4.60508e-21)
(0.045151 -0.00335813 0)
(0.0453601 -0.00304055 0)
(0.0455595 -0.00270964 6.27232e-21)
(0.0457486 -0.00236545 1.08882e-22)
(0.0459267 -0.00200799 -2.60512e-21)
(0.0460933 -0.00163727 -2.71431e-21)
(0.0462478 -0.00125331 2.72981e-21)
(0.0463896 -0.000856194 0)
(0.0465181 -0.000446014 -1.40803e-21)
(0.0466328 -2.29023e-05 -2.23509e-21)
(0.0467329 0.000413066 1.49435e-21)
(0.0468179 0.000862035 -1.75794e-23)
(0.0468871 0.00132362 -1.23215e-22)
(0.0469398 0.00179787 5.92296e-22)
(0.0469761 0.00228612 4.20013e-22)
(0.0469941 0.002783 8.23318e-22)
(0.0469937 0.00329065 -4.05517e-21)
(0.0469741 0.0038101 2.97605e-23)
(0.0469346 0.00434151 0)
(0.0468745 0.0048849 -3.3163e-21)
(0.0467929 0.00544033 9.69279e-21)
(0.0466892 0.00600783 -6.49578e-21)
(0.0465625 0.00658729 -3.20632e-21)
(0.046412 0.00717863 -8.39284e-23)
(0.0462367 0.00778179 -3.10384e-21)
(0.0460356 0.00839681 -1.73002e-23)
(0.0458076 0.00902377 6.2784e-21)
(0.0455518 0.00966282 -6.4127e-21)
(0.0452671 0.0103141 -6.23338e-21)
(0.0449526 0.0109776 1.24041e-20)
(0.0446071 0.0116533 -1.42971e-22)
(0.0442296 0.0123412 6.1521e-21)
(0.043819 0.013041 -6.12844e-21)
(0.0433737 0.0137528 5.96113e-21)
(0.0428913 0.0144769 -1.18842e-20)
(0.0423695 0.0152133 -6.07089e-21)
(0.0418077 0.0159622 1.18301e-20)
(0.0412051 0.0167208 -6.36591e-21)
(0.0405658 0.0174943 -1.84536e-20)
(0.0398764 0.0182615 -5.7434e-21)
(0.039137 0.0191026 0)
(0.0376278 -0.00761841 0)
(0.0379042 -0.00762748 8.60877e-22)
(0.0381794 -0.0076288 -4.28583e-23)
(0.0384587 -0.00762275 0)
(0.0387416 -0.00760703 0)
(0.0390282 -0.00758069 1.12899e-21)
(0.0393184 -0.00754345 -3.60091e-21)
(0.0396118 -0.00749515 4.92137e-21)
(0.0399079 -0.00743567 -2.45426e-21)
(0.0402059 -0.00736492 1.32721e-21)
(0.0405049 -0.0072827 0)
(0.0408043 -0.00718877 1.45071e-21)
(0.0411032 -0.00708284 -1.5854e-21)
(0.0414013 -0.00696467 0)
(0.0416983 -0.00683402 0)
(0.0419936 -0.0066907 1.75973e-21)
(0.0422871 -0.00653455 1.37387e-22)
(0.0425782 -0.0063654 -3.64622e-21)
(0.0428667 -0.00618314 -3.81405e-21)
(0.0431521 -0.00598764 3.89359e-21)
(0.0434338 -0.00577877 1.9958e-21)
(0.0437114 -0.00555645 8.47975e-21)
(0.0439842 -0.00532057 6.90311e-23)
(0.0442515 -0.00507105 -2.33682e-21)
(0.0445127 -0.00480784 4.50991e-21)
(0.0447671 -0.00453089 -2.34984e-21)
(0.045014 -0.00424018 4.75706e-21)
(0.0452528 -0.00393569 0)
(0.0454828 -0.00361744 0)
(0.0457034 -0.00328543 0)
(0.045914 -0.00293971 -1.29839e-21)
(0.0461139 -0.00258032 -2.68124e-21)
(0.0463025 -0.0022073 2.75522e-21)
(0.0464792 -0.0018207 2.86925e-21)
(0.0466434 -0.00142059 -2.88434e-21)
(0.0467944 -0.00100704 0)
(0.0469316 -0.000580128 1.5305e-21)
(0.0470545 -0.000139992 -7.82488e-22)
(0.0471624 0.000313293 0)
(0.0472546 0.000779818 8.11033e-22)
(0.0473305 0.00125914 -1.54606e-22)
(0.0473894 0.0017513 1.05091e-22)
(0.0474313 0.00225763 -4.22081e-22)
(0.0474545 0.00277286 0)
(0.0474588 0.00329902 -1.72841e-21)
(0.0474436 0.00383712 1.71018e-21)
(0.0474081 0.00438732 0)
(0.0473517 0.00494959 -8.65118e-23)
(0.0472734 0.00552393 6.62012e-23)
(0.0471727 0.0061103 3.31063e-21)
(0.0470488 0.00670866 0)
(0.0469009 0.00731895 -1.58109e-22)
(0.046728 0.00794116 -3.26937e-21)
(0.0465292 0.00857534 -1.00845e-20)
(0.0463037 0.00922156 -1.72619e-22)
(0.0460503 0.00987993 6.45254e-21)
(0.0457682 0.0105506 0)
(0.0454563 0.0112336 0)
(0.0451137 0.011929 6.68728e-21)
(0.0447391 0.0126367 0)
(0.0443313 0.0133568 0)
(0.0438884 0.0140893 -1.65627e-22)
(0.0434081 0.0148348 -6.43447e-21)
(0.0428889 0.0155928 -1.29985e-20)
(0.0423312 0.0163633 1.29746e-20)
(0.0417333 0.0171439 -6.46178e-22)
(0.0410966 0.0179406 6.07536e-21)
(0.0404013 0.0187334 6.39082e-21)
(0.0396485 0.0195995 0)
(0.0375464 -0.00809599 0)
(0.0378459 -0.00810611 -8.77216e-22)
(0.0381439 -0.00810821 2.95684e-21)
(0.0384447 -0.00810258 -9.31074e-22)
(0.0387473 -0.00808678 0)
(0.0390514 -0.00805971 -3.57976e-21)
(0.0393574 -0.00802101 6.19586e-21)
(0.0396655 -0.00797046 1.556e-22)
(0.0399759 -0.00790795 -6.87308e-21)
(0.0402884 -0.00783338 1.33416e-21)
(0.0406025 -0.00774658 -1.55431e-21)
(0.0409175 -0.00764736 -1.62274e-21)
(0.0412328 -0.0075355 4.98392e-21)
(0.0415475 -0.00741078 -6.85897e-21)
(0.0418611 -0.00727301 3.4866e-21)
(0.042173 -0.007122 -1.96183e-21)
(0.0424826 -0.00695758 7.64483e-21)
(0.0427896 -0.00677958 -1.8539e-21)
(0.0430933 -0.00658787 2.15876e-21)
(0.0433933 -0.00638232 -2.01772e-21)
(0.0436891 -0.00616282 1.39179e-22)
(0.0439802 -0.00592927 -1.34115e-20)
(0.044266 -0.0056816 -2.38168e-21)
(0.044546 -0.00541973 -1.32913e-22)
(0.0448197 -0.00514363 7.27506e-21)
(0.0450862 -0.00485328 -2.43457e-21)
(0.0453451 -0.00454867 5.17197e-21)
(0.0455956 -0.00422981 -7.85967e-21)
(0.045837 -0.00389673 0)
(0.0460688 -0.00354948 -2.77666e-21)
(0.0462902 -0.0031881 2.78333e-21)
(0.0465005 -0.00281266 6.76001e-23)
(0.0466992 -0.00242324 -1.5074e-21)
(0.0468857 -0.00201991 -1.54103e-21)
(0.0470591 -0.00160277 4.67452e-21)
(0.047219 -0.00117191 -3.11658e-21)
(0.0473646 -0.000727442 2.43795e-21)
(0.0474954 -0.000269513 -3.27699e-21)
(0.0476107 0.000201779 1.66224e-21)
(0.04771 0.000686486 -4.17602e-22)
(0.0477925 0.00118412 0)
(0.0478575 0.00169478 4.47365e-22)
(0.0479051 0.0022197 -4.52047e-22)
(0.0479336 0.0027536 -9.12024e-22)
(0.0479429 0.00329864 2.72162e-21)
(0.0479325 0.00385572 -1.83768e-21)
(0.0479014 0.00442498 -1.79587e-21)
(0.0478491 0.00500638 0)
(0.0477748 0.00559988 -7.2598e-21)
(0.0476778 0.00620546 7.13629e-21)
(0.0475573 0.0068231 -3.46745e-21)
(0.0474127 0.00745279 3.44624e-21)
(0.047243 0.00809454 3.601e-21)
(0.0470474 0.00874838 6.93904e-21)
(0.046825 0.0094144 6.83546e-21)
(0.0465748 0.0100927 0)
(0.0462959 0.0107834 -7.11199e-21)
(0.0459873 0.0114866 0)
(0.0456479 0.0122023 1.64898e-22)
(0.0452765 0.0129305 -6.68385e-21)
(0.0448715 0.0136716 6.83215e-21)
(0.044431 0.0144256 6.64974e-21)
(0.0439533 0.0151928 -6.96659e-21)
(0.0434379 0.0159726 -1.62222e-22)
(0.0428849 0.0167652 1.64855e-22)
(0.0422909 0.0175688 2.00892e-20)
(0.0416535 0.01839 6.91643e-21)
(0.0409508 0.0192111 6.73756e-21)
(0.040204 0.0201107 -6.72916e-21)
(0.0374515 -0.00860693 0)
(0.037772 -0.0086178 0)
(0.0380922 -0.00862031 2.15447e-21)
(0.0384161 -0.00861479 -3.2173e-21)
(0.0387418 -0.00859861 -1.21522e-21)
(0.0390682 -0.00857062 0)
(0.0393951 -0.00853037 0)
(0.0397228 -0.00847761 1.44023e-21)
(0.0400514 -0.00841215 -3.03264e-21)
(0.0403811 -0.00833385 -2.41556e-22)
(0.0407118 -0.00824254 8.05043e-21)
(0.0410432 -0.00813802 -1.64678e-21)
(0.0413748 -0.00802008 1.79323e-21)
(0.0417061 -0.00788855 -3.5773e-21)
(0.0420364 -0.00774325 1.94754e-21)
(0.0423652 -0.00758402 0)
(0.0426917 -0.00741073 0)
(0.0430154 -0.00722322 7.10158e-23)
(0.0433356 -0.00702136 -6.49807e-21)
(0.0436518 -0.00680504 2.18878e-21)
(0.0439633 -0.00657415 -2.36759e-21)
(0.0442697 -0.00632861 2.32103e-21)
(0.0445702 -0.00606837 2.452e-21)
(0.0448644 -0.00579337 -2.37559e-21)
(0.0451516 -0.00550358 -2.51817e-21)
(0.0454313 -0.00519902 0)
(0.0457028 -0.00487968 0)
(0.0459654 -0.00454561 4.13865e-21)
(0.0462186 -0.00419685 0)
(0.0464616 -0.00383348 2.94271e-21)
(0.0466939 -0.00345557 -2.94871e-21)
(0.0469147 -0.00306321 -1.48876e-21)
(0.0471235 -0.00265652 1.52191e-21)
(0.0473195 -0.00223561 3.18601e-21)
(0.0475021 -0.0018006 -1.58875e-21)
(0.0476706 -0.00135162 -1.6727e-21)
(0.0478245 -0.000888788 1.72225e-21)
(0.0479631 -0.000412294 0)
(0.0480858 7.77629e-05 0)
(0.0481919 0.000581396 4.6151e-22)
(0.0482809 0.00109807 0)
(0.0483521 0.00162796 0)
(0.0484054 0.00217217 -1.45105e-21)
(0.0484393 0.00272533 1.92989e-21)
(0.0484538 0.00328988 -9.76827e-22)
(0.0484481 0.00386659 1.85957e-21)
(0.0484216 0.00445554 0)
(0.0483736 0.00505668 5.73327e-21)
(0.0483034 0.00566999 -7.39552e-23)
(0.0482103 0.00629543 0)
(0.0480935 0.00693298 -7.49708e-21)
(0.0479525 0.00758264 -8.43704e-23)
(0.0477862 0.00824445 -7.34101e-21)
(0.047594 0.00891843 -3.79376e-21)
(0.047375 0.00960469 -7.38464e-21)
(0.0471281 0.0103033 7.33558e-21)
(0.0468525 0.0110145 7.14614e-21)
(0.0465471 0.0117382 0)
(0.0462109 0.0124746 -7.26467e-21)
(0.0458424 0.0132238 1.66262e-22)
(0.0454399 0.0139862 0)
(0.045002 0.014762 0)
(0.0445278 0.0155509 6.99286e-21)
(0.044017 0.0163525 0)
(0.0434679 0.0171676 0)
(0.0428756 0.0179952 -7.13079e-21)
(0.0422337 0.0188408 -6.75289e-21)
(0.0415292 0.0196936 -7.28773e-21)
(0.0407841 0.0205923 0)
(0.0373514 -0.00915437 0)
(0.0376906 -0.00916578 0)
(0.0380308 -0.00916842 0)
(0.0383762 -0.00916264 -1.22234e-21)
(0.0387245 -0.00914569 -1.38973e-21)
(0.0390742 -0.00911635 -1.79737e-22)
(0.0394246 -0.00907417 2.75939e-21)
(0.0397752 -0.00901884 -1.46476e-21)
(0.040126 -0.00895016 1.62035e-21)
(0.0404769 -0.00886793 3.31137e-21)
(0.0408278 -0.00877195 0)
(0.0411785 -0.00866199 0)
(0.0415288 -0.00853781 -8.03026e-23)
(0.0418782 -0.00839924 5.82238e-21)
(0.0422263 -0.0082461 -8.19044e-21)
(0.0425727 -0.00807826 -1.66747e-22)
(0.0429167 -0.0078956 4.2586e-21)
(0.0432577 -0.00769799 2.18959e-21)
(0.0435952 -0.00748533 -1.15788e-22)
(0.0439283 -0.00725752 0)
(0.0442566 -0.00701449 4.92061e-21)
(0.0445793 -0.00675617 0)
(0.0448957 -0.00648253 5.2035e-21)
(0.0452054 -0.00619354 -8.01761e-21)
(0.0455075 -0.0058892 8.21358e-21)
(0.0458015 -0.00556952 2.8812e-21)
(0.0460867 -0.00523456 -4.38958e-21)
(0.0463625 -0.00488436 4.45588e-21)
(0.0466283 -0.00451901 -2.984e-21)
(0.0468834 -0.00413859 0)
(0.0471271 -0.00374323 -3.18881e-21)
(0.0473589 -0.00333304 -1.71648e-21)
(0.047578 -0.00290816 3.26697e-21)
(0.0477839 -0.00246873 -3.37166e-21)
(0.0479758 -0.00201493 1.73311e-21)
(0.0481532 -0.0015469 -1.74109e-21)
(0.0483154 -0.0010648 -8.74939e-22)
(0.0484619 -0.000568835 9.36326e-22)
(0.048592 -5.91278e-05 4.6016e-22)
(0.048705 0.000464284 -1.40877e-21)
(0.0488005 0.0010008 -1.24139e-22)
(0.0488777 0.00155071 0)
(0.0489367 0.00211484 4.91836e-22)
(0.048976 0.00268795 -9.82202e-22)
(0.0489956 0.00327264 9.80339e-22)
(0.0489947 0.00386958 0)
(0.0489727 0.00447879 0)
(0.0489289 0.00510024 2.04883e-21)
(0.0488627 0.00573388 -3.95789e-21)
(0.0487735 0.00637968 -8.02227e-21)
(0.0486604 0.00703762 1.57805e-20)
(0.0485229 0.00770772 -4.01855e-21)
(0.0483601 0.00839001 3.90664e-21)
(0.0481711 0.00908456 3.80987e-21)
(0.0479553 0.00979146 -7.7806e-21)
(0.0477115 0.0105108 7.72855e-21)
(0.0474389 0.0112427 0)
(0.0471365 0.0119873 -7.87413e-21)
(0.046803 0.0127449 1.88059e-22)
(0.046437 0.0135155 7.6197e-21)
(0.0460371 0.0142996 0)
(0.0456024 0.0150971 0)
(0.0451324 0.0159077 0)
(0.0446259 0.0167316 1.52592e-20)
(0.0440785 0.01757 7.70948e-21)
(0.0434847 0.018422 7.31553e-21)
(0.042838 0.0192937 -1.4799e-20)
(0.0421405 0.0201707 -3.74742e-22)
(0.0414086 0.0211045 7.63356e-21)
(0.0372502 -0.00974149 0)
(0.0376079 -0.00975333 -2.31601e-21)
(0.0379671 -0.00975591 2.90634e-21)
(0.0383325 -0.00974958 -2.06415e-21)
(0.0387019 -0.0097315 4.02691e-21)
(0.0390737 -0.00970037 1.48603e-21)
(0.0394471 -0.00965576 1.57049e-21)
(0.0398213 -0.00959736 0)
(0.0401959 -0.00952494 -3.38426e-21)
(0.0405704 -0.00943829 -3.53966e-21)
(0.0409444 -0.00933718 3.60594e-21)
(0.0413176 -0.00922135 -1.98205e-21)
(0.0416896 -0.00909054 2.14789e-21)
(0.04206 -0.00894454 -1.85315e-21)
(0.0424284 -0.00878319 -8.76283e-21)
(0.0427944 -0.00860632 -1.77346e-22)
(0.0431576 -0.00841383 -1.75341e-22)
(0.0435173 -0.00820561 4.69733e-21)
(0.0438731 -0.00798156 2.40794e-21)
(0.0442242 -0.00774162 5.16923e-21)
(0.04457 -0.00748573 -5.01805e-21)
(0.0449099 -0.00721385 0)
(0.0452432 -0.00692599 1.39739e-22)
(0.0455691 -0.00662213 0)
(0.0458871 -0.00630232 -2.84278e-21)
(0.0461964 -0.0059666 -2.91419e-21)
(0.0464964 -0.00561503 1.49269e-21)
(0.0467864 -0.00524771 0)
(0.0470657 -0.00486475 1.64317e-21)
(0.0473337 -0.00446628 3.30928e-21)
(0.0475897 -0.00405243 -3.31363e-21)
(0.0478332 -0.00362338 1.66999e-21)
(0.0480633 -0.00317928 -3.52367e-21)
(0.0482796 -0.00272034 7.073e-21)
(0.0484813 -0.00224674 -1.80411e-21)
(0.0486679 -0.00175866 0)
(0.0488387 -0.00125632 -9.70428e-22)
(0.0489933 -0.000739958 4.67671e-23)
(0.0491308 -0.000209694 1.47042e-21)
(0.0492509 0.000334357 -1.24868e-21)
(0.0493529 0.000891531 2.47851e-22)
(0.0494362 0.00146232 -7.90091e-22)
(0.0495008 0.00204697 5.26568e-22)
(0.0495454 0.00264081 0)
(0.04957 0.00324636 0)
(0.0495737 0.0038642 0)
(0.0495561 0.00449435 2.15303e-21)
(0.0495164 0.00513674 2.14724e-21)
(0.049454 0.00579132 0)
(0.0493684 0.00645805 4.16189e-21)
(0.0492588 0.00713692 4.33925e-21)
(0.0491244 0.00782795 4.23962e-21)
(0.0489647 0.00853119 0)
(0.0487787 0.00924672 0)
(0.0485656 0.00997463 -8.194e-21)
(0.0483246 0.010715 8.13887e-21)
(0.0480547 0.0114681 0)
(0.0477548 0.0122339 7.90058e-21)
(0.0474236 0.0130129 -7.87136e-21)
(0.0470601 0.0138051 -8.23812e-21)
(0.0466633 0.0146108 8.0107e-21)
(0.0462326 0.0154299 -7.97627e-21)
(0.0457668 0.0162625 0)
(0.0452628 0.0171095 -7.74423e-21)
(0.0447144 0.017972 1.91346e-22)
(0.0441188 0.0188494 -1.60075e-20)
(0.0434725 0.0197474 -1.59689e-20)
(0.0427908 0.0206481 1.55336e-20)
(0.0420761 0.021594 -7.62366e-21)
(0.0371479 -0.0103717 -5.69054e-22)
(0.0375257 -0.0103839 0)
(0.0379047 -0.0103863 -6.25487e-22)
(0.0382904 -0.0103792 3.52215e-21)
(0.0386805 -0.0103597 -6.52806e-21)
(0.0390737 -0.0103265 1.49027e-21)
(0.0394691 -0.010279 -1.59767e-21)
(0.0398661 -0.010217 3.55418e-21)
(0.0402641 -0.0101402 -1.75818e-21)
(0.0406624 -0.0100485 -1.84877e-21)
(0.0410606 -0.00994164 -2.03824e-21)
(0.0414578 -0.00981929 6.24165e-21)
(0.0418536 -0.0096812 -1.98982e-21)
(0.0422474 -0.00952715 6.85102e-21)
(0.0426386 -0.00935695 2.44521e-21)
(0.0430268 -0.00917044 1.88652e-22)
(0.0434114 -0.0089675 -4.85416e-21)
(0.043792 -0.00874802 0)
(0.044168 -0.00851191 0)
(0.0445387 -0.00825912 -2.78649e-21)
(0.0449035 -0.00798961 -2.72159e-21)
(0.0452619 -0.00770337 -5.82192e-21)
(0.0456131 -0.00740042 2.93151e-21)
(0.0459564 -0.00708079 6.12705e-21)
(0.0462912 -0.00674455 -6.11458e-21)
(0.0466167 -0.00639177 1.63001e-21)
(0.0469323 -0.00602257 1.66874e-21)
(0.0472373 -0.00563707 0)
(0.0475309 -0.00523541 -1.65973e-21)
(0.0478126 -0.00481777 -3.51206e-21)
(0.0480816 -0.00438433 -7.06193e-23)
(0.0483374 -0.00393529 3.5913e-21)
(0.0485792 -0.00347087 -1.89899e-21)
(0.0488064 -0.0029913 0)
(0.0490183 -0.00249681 9.87846e-22)
(0.0492145 -0.00198763 -1.00712e-21)
(0.0493943 -0.001464 9.77114e-22)
(0.0495571 -0.000926209 -2.04178e-21)
(0.0497024 -0.000374383 0)
(0.0498296 0.000191268 -2.71352e-22)
(0.0499381 0.000770036 2.69774e-22)
(0.0500275 0.00136265 -4.24232e-22)
(0.0500976 0.00196857 1.6715e-21)
(0.0501475 0.00258391 -3.33845e-21)
(0.0501769 0.00321104 2.2096e-21)
(0.0501851 0.00385048 2.22273e-21)
(0.0501716 0.00450219 -2.09458e-21)
(0.0501357 0.00516609 4.52794e-21)
(0.0500769 0.00584212 -4.38161e-21)
(0.0499945 0.00653027 -1.09196e-20)
(0.0498879 0.00723052 9.00184e-23)
(0.0497565 0.0079429 -4.25182e-21)
(0.0495994 0.00866748 0)
(0.049416 0.00940433 0)
(0.0492054 0.0101536 -8.62611e-21)
(0.0489668 0.0109153 1.27616e-20)
(0.0486992 0.0116898 -8.53791e-21)
(0.0484016 0.0124772 0)
(0.048073 0.0132777 8.70525e-21)
(0.0477125 0.0140916 1.67242e-20)
(0.0473194 0.0149188 -8.21303e-21)
(0.0468927 0.0157597 -1.02031e-23)
(0.0464295 0.0166149 8.37528e-21)
(0.0459256 0.0174857 -2.15983e-22)
(0.0453766 0.0183728 -1.66721e-20)
(0.0447852 0.019276 1.6427e-20)
(0.0441521 0.0202003 8.08766e-21)
(0.0434996 0.0211236 0)
(0.0428145 0.0221224 0)
(0.0370425 -0.0110485 5.79644e-22)
(0.0374426 -0.011061 3.36112e-21)
(0.0378436 -0.0110631 -2.66497e-21)
(0.0382511 -0.0110552 0)
(0.0386632 -0.0110341 -7.67112e-22)
(0.0390784 -0.0109984 -3.45218e-21)
(0.0394962 -0.0109477 2.51051e-21)
(0.0399158 -0.0108816 -4.77576e-21)
(0.0403369 -0.0108 3.78618e-21)
(0.0407587 -0.0107027 0)
(0.0411808 -0.0105893 9.76089e-22)
(0.0416023 -0.0104597 0)
(0.0420224 -0.0103135 2.46537e-21)
(0.0424406 -0.0101506 -7.00262e-21)
(0.042856 -0.00997076 0)
(0.043268 -0.00977376 0)
(0.043676 -0.00955952 0)
(0.0440794 -0.00932792 -4.15223e-21)
(0.0444776 -0.00907888 5.52797e-21)
(0.0448699 -0.00881235 2.82209e-21)
(0.0452556 -0.00852831 0)
(0.0456341 -0.00822678 0)
(0.0460048 -0.00790778 0)
(0.0463668 -0.00757138 -8.18142e-21)
(0.0467197 -0.00721768 9.85384e-21)
(0.0470625 -0.00684679 -4.98356e-21)
(0.0473947 -0.00645887 -3.46228e-21)
(0.0477156 -0.00605406 3.57584e-21)
(0.0480244 -0.00563258 -3.57424e-21)
(0.0483205 -0.00519463 1.89584e-21)
(0.0486032 -0.00474044 -3.80601e-21)
(0.0488718 -0.00427026 1.83522e-21)
(0.0491257 -0.00378436 3.92906e-21)
(0.0493643 -0.003283 2.05389e-21)
(0.0495869 -0.00276648 -9.95176e-22)