/*--------------------------------*- C++ -*----------------------------------*\
| =========                 |                                                 |
| \\      /  F ield         | OpenFOAM: The Open Source CFD Toolbox           |
|  \\    /   O peration     | Version:  2312                                  |
|   \\  /    A nd           | Website:  www.openfoam.com                      |
|    \\/     M anipulation  |                                                 |
\*---------------------------------------------------------------------------*/
FoamFile
{
    version     2.0;
    format      ascii;
    arch        "LSB;label=32;scalar=64";
    class       volScalarField;
    location    "1500";
    object      k;
}
// * * * * * * * * * * * * * * * * * * * * * * * * * * * * * * * * * * * * * //

dimensions      [0 2 -2 0 0 0 0];

internalField   nonuniform List<scalar> 
76025
(
4.70894e-06
4.70429e-06
4.69979e-06
4.6982e-06
4.69561e-06
4.69408e-06
4.69494e-06
4.69466e-06
4.69267e-06
4.69056e-06
4.6897e-06
4.68808e-06
4.68715e-06
4.68391e-06
4.68081e-06
4.68059e-06
4.68063e-06
4.67999e-06
4.67748e-06
4.67632e-06
4.67596e-06
4.67589e-06
4.6777e-06
4.67919e-06
4.68406e-06
4.68674e-06
4.69424e-06
4.6995e-06
4.70814e-06
4.71562e-06
4.72685e-06
4.73587e-06
4.75086e-06
4.76482e-06
4.78125e-06
4.79929e-06
4.81818e-06
4.84279e-06
4.86937e-06
4.89584e-06
4.92767e-06
4.958e-06
4.99801e-06
5.03394e-06
5.07412e-06
5.11031e-06
5.15207e-06
5.18997e-06
5.2278e-06
5.26128e-06
5.29473e-06
5.3255e-06
5.35762e-06
5.38028e-06
5.41386e-06
5.43289e-06
5.46658e-06
5.48553e-06
5.52722e-06
5.55189e-06
5.60461e-06
5.64058e-06
5.7199e-06
5.7679e-06
5.87306e-06
5.94047e-06
6.04845e-06
6.17796e-06
6.27128e-06
4.7442e-06
4.74412e-06
4.74194e-06
4.73746e-06
4.73224e-06
4.72884e-06
4.72888e-06
4.72911e-06
4.72739e-06
4.72532e-06
4.72462e-06
4.72439e-06
4.72485e-06
4.72733e-06
4.72683e-06
4.72737e-06
4.72738e-06
4.73035e-06
4.7289e-06
4.72801e-06
4.72825e-06
4.72888e-06
4.73218e-06
4.7354e-06
4.7417e-06
4.74758e-06
4.7564e-06
4.76521e-06
4.77638e-06
4.78802e-06
4.80181e-06
4.81609e-06
4.83221e-06
4.84952e-06
4.86821e-06
4.88843e-06
4.91012e-06
4.93322e-06
4.95779e-06
4.98335e-06
5.01037e-06
5.03833e-06
5.06712e-06
5.09606e-06
5.1256e-06
5.15486e-06
5.18465e-06
5.21212e-06
5.24131e-06
5.26666e-06
5.29536e-06
5.31971e-06
5.35082e-06
5.37337e-06
5.40787e-06
5.43117e-06
5.47099e-06
5.49522e-06
5.54899e-06
5.58175e-06
5.65492e-06
5.6979e-06
5.79094e-06
5.84492e-06
5.96063e-06
6.02857e-06
6.18102e-06
6.26406e-06
6.47398e-06
4.77198e-06
4.77164e-06
4.77357e-06
4.77539e-06
4.77371e-06
4.7743e-06
4.77404e-06
4.77435e-06
4.77416e-06
4.77415e-06
4.77169e-06
4.77191e-06
4.77113e-06
4.77189e-06
4.77297e-06
4.77443e-06
4.77583e-06
4.77755e-06
4.77921e-06
4.78068e-06
4.78311e-06
4.7857e-06
4.78992e-06
4.79463e-06
4.80112e-06
4.80836e-06
4.81729e-06
4.82723e-06
4.83873e-06
4.85136e-06
4.86537e-06
4.88051e-06
4.89677e-06
4.9142e-06
4.93276e-06
4.95242e-06
4.97325e-06
4.99507e-06
5.01779e-06
5.04128e-06
5.06554e-06
5.09038e-06
5.11577e-06
5.14133e-06
5.16752e-06
5.19351e-06
5.22031e-06
5.24617e-06
5.27381e-06
5.29952e-06
5.32902e-06
5.35456e-06
5.38779e-06
5.41344e-06
5.45371e-06
5.4805e-06
5.53216e-06
5.56259e-06
5.62814e-06
5.6652e-06
5.74439e-06
5.78939e-06
5.88611e-06
5.94194e-06
6.06171e-06
6.13216e-06
6.28246e-06
6.37161e-06
6.57772e-06
4.80542e-06
4.80543e-06
4.80729e-06
4.80882e-06
4.81065e-06
4.81249e-06
4.8133e-06
4.81402e-06
4.81424e-06
4.81463e-06
4.81491e-06
4.81572e-06
4.81715e-06
4.81925e-06
4.82193e-06
4.82494e-06
4.82824e-06
4.83162e-06
4.83532e-06
4.839e-06
4.84323e-06
4.84769e-06
4.85296e-06
4.8588e-06
4.86565e-06
4.87338e-06
4.88224e-06
4.89218e-06
4.90329e-06
4.91555e-06
4.92893e-06
4.94339e-06
4.9589e-06
4.97543e-06
4.99297e-06
5.01145e-06
5.03088e-06
5.0512e-06
5.07233e-06
5.09413e-06
5.1167e-06
5.13972e-06
5.16356e-06
5.18751e-06
5.21256e-06
5.23723e-06
5.26371e-06
5.28895e-06
5.31742e-06
5.34334e-06
5.37495e-06
5.40187e-06
5.43839e-06
5.4669e-06
5.51084e-06
5.54167e-06
5.59641e-06
5.63004e-06
5.69861e-06
5.73755e-06
5.82095e-06
5.86878e-06
5.97133e-06
6.03031e-06
6.15695e-06
6.23086e-06
6.38988e-06
6.48307e-06
6.7044e-06
4.84562e-06
4.84786e-06
4.84561e-06
4.84821e-06
4.84703e-06
4.8482e-06
4.8508e-06
4.85391e-06
4.85662e-06
4.85886e-06
4.86085e-06
4.86291e-06
4.86541e-06
4.86847e-06
4.87222e-06
4.87652e-06
4.88137e-06
4.88655e-06
4.89213e-06
4.89793e-06
4.90408e-06
4.91049e-06
4.91734e-06
4.92461e-06
4.93248e-06
4.94099e-06
4.95026e-06
4.96036e-06
4.97135e-06
4.98327e-06
4.99612e-06
5.00991e-06
5.02463e-06
5.04026e-06
5.0568e-06
5.0742e-06
5.09248e-06
5.11157e-06
5.1315e-06
5.15208e-06
5.17355e-06
5.19548e-06
5.21851e-06
5.24163e-06
5.2664e-06
5.29065e-06
5.31758e-06
5.34295e-06
5.37283e-06
5.39946e-06
5.43358e-06
5.46178e-06
5.50188e-06
5.53215e-06
5.58051e-06
5.6135e-06
5.673e-06
5.70942e-06
5.78318e-06
5.82473e-06
5.91468e-06
5.9653e-06
6.0742e-06
6.13626e-06
6.26979e-06
6.3469e-06
6.51288e-06
6.60893e-06
6.83872e-06
4.8947e-06
4.89351e-06
4.89547e-06
4.89634e-06
4.89646e-06
4.901e-06
4.90271e-06
4.90242e-06
4.90444e-06
4.90735e-06
4.9106e-06
4.91401e-06
4.91768e-06
4.92172e-06
4.92629e-06
4.93141e-06
4.93715e-06
4.94341e-06
4.95021e-06
4.95745e-06
4.96511e-06
4.97315e-06
4.98156e-06
4.99036e-06
4.99958e-06
5.00926e-06
5.01948e-06
5.03028e-06
5.04172e-06
5.05386e-06
5.06673e-06
5.08035e-06
5.09475e-06
5.10992e-06
5.1259e-06
5.14267e-06
5.16027e-06
5.17861e-06
5.19783e-06
5.21768e-06
5.23861e-06
5.25995e-06
5.28276e-06
5.30555e-06
5.33062e-06
5.35487e-06
5.38277e-06
5.40854e-06
5.44018e-06
5.4677e-06
5.50429e-06
5.53401e-06
5.57703e-06
5.60961e-06
5.661e-06
5.69702e-06
5.75966e-06
5.79932e-06
5.87687e-06
5.92119e-06
6.0161e-06
6.06926e-06
6.18358e-06
6.2484e-06
6.38792e-06
6.468e-06
6.64034e-06
6.73913e-06
6.98034e-06
4.95032e-06
4.95385e-06
4.95432e-06
4.9553e-06
4.95183e-06
4.95173e-06
4.95134e-06
4.95283e-06
4.95584e-06
4.95983e-06
4.96445e-06
4.96944e-06
4.97469e-06
4.98018e-06
4.98598e-06
4.99215e-06
4.99877e-06
5.00588e-06
5.0135e-06
5.02162e-06
5.03023e-06
5.03929e-06
5.0488e-06
5.05874e-06
5.06908e-06
5.07985e-06
5.09106e-06
5.10273e-06
5.1149e-06
5.1276e-06
5.14088e-06
5.15476e-06
5.16929e-06
5.18448e-06
5.20037e-06
5.21698e-06
5.23437e-06
5.25246e-06
5.27148e-06
5.29109e-06
5.31196e-06
5.33317e-06
5.35624e-06
5.37909e-06
5.40489e-06
5.42942e-06
5.45865e-06
5.48494e-06
5.51858e-06
5.54691e-06
5.58606e-06
5.61703e-06
5.66287e-06
5.69743e-06
5.7515e-06
5.79046e-06
5.85553e-06
5.89885e-06
5.97941e-06
6.02697e-06
6.12668e-06
6.18239e-06
6.30199e-06
6.36979e-06
6.51545e-06
6.59884e-06
6.77766e-06
6.88022e-06
7.13265e-06
4.99942e-06
5.00057e-06
5.00135e-06
5.00275e-06
5.00371e-06
5.00509e-06
5.00698e-06
5.00974e-06
5.01345e-06
5.01807e-06
5.02348e-06
5.02949e-06
5.03605e-06
5.04299e-06
5.0503e-06
5.05795e-06
5.06594e-06
5.07427e-06
5.08298e-06
5.09208e-06
5.1016e-06
5.11153e-06
5.12188e-06
5.13265e-06
5.14382e-06
5.1554e-06
5.16739e-06
5.1798e-06
5.19264e-06
5.20594e-06
5.21974e-06
5.23404e-06
5.24892e-06
5.26438e-06
5.2805e-06
5.29728e-06
5.31483e-06
5.33303e-06
5.35223e-06
5.37197e-06
5.39317e-06
5.41458e-06
5.43827e-06
5.46144e-06
5.48825e-06
5.51322e-06
5.54395e-06
5.57079e-06
5.6065e-06
5.63549e-06
5.67726e-06
5.70913e-06
5.75794e-06
5.79396e-06
5.85102e-06
5.89244e-06
5.96023e-06
6.00718e-06
6.09048e-06
6.14183e-06
6.24581e-06
6.30398e-06
6.42905e-06
6.50002e-06
6.65171e-06
6.73865e-06
6.92444e-06
7.03197e-06
7.29244e-06
5.05398e-06
5.05645e-06
5.059e-06
5.0618e-06
5.06471e-06
5.06779e-06
5.07114e-06
5.07494e-06
5.0793e-06
5.08432e-06
5.09005e-06
5.09647e-06
5.10357e-06
5.11127e-06
5.1195e-06
5.1282e-06
5.13733e-06
5.14684e-06
5.1567e-06
5.16692e-06
5.17749e-06
5.1884e-06
5.19967e-06
5.21129e-06
5.22326e-06
5.23559e-06
5.24829e-06
5.26137e-06
5.27485e-06
5.28874e-06
5.30308e-06
5.31789e-06
5.33323e-06
5.34912e-06
5.36564e-06
5.38281e-06
5.40075e-06
5.41931e-06
5.43895e-06
5.45909e-06
5.48086e-06
5.50274e-06
5.52723e-06
5.55095e-06
5.5789e-06
5.60447e-06
5.63678e-06
5.66427e-06
5.70214e-06
5.73177e-06
5.77645e-06
5.80885e-06
5.86157e-06
5.8979e-06
5.95996e-06
6.00167e-06
6.07508e-06
6.12305e-06
6.2114e-06
6.26534e-06
6.3738e-06
6.4344e-06
6.566e-06
6.64033e-06
6.79742e-06
6.891e-06
7.08115e-06
7.19894e-06
7.4511e-06
5.11676e-06
5.12015e-06
5.12387e-06
5.12793e-06
5.13232e-06
5.13691e-06
5.14174e-06
5.14683e-06
5.15222e-06
5.158e-06
5.16425e-06
5.17103e-06
5.17839e-06
5.18635e-06
5.19491e-06
5.20404e-06
5.21371e-06
5.22387e-06
5.23448e-06
5.24549e-06
5.25689e-06
5.26864e-06
5.28073e-06
5.29314e-06
5.30588e-06
5.31895e-06
5.33235e-06
5.3461e-06
5.36022e-06
5.37472e-06
5.38965e-06
5.40504e-06
5.42094e-06
5.43739e-06
5.45447e-06
5.47221e-06
5.49071e-06
5.5099e-06
5.53015e-06
5.55098e-06
5.5735e-06
5.5962e-06
5.62161e-06
5.64631e-06
5.67541e-06
5.70216e-06
5.73589e-06
5.76488e-06
5.80443e-06
5.836e-06
5.88268e-06
5.9174e-06
5.97272e-06
6.01132e-06
6.07721e-06
6.12034e-06
6.19935e-06
6.2477e-06
6.34267e-06
6.3976e-06
6.51181e-06
6.57578e-06
6.71329e-06
6.79188e-06
6.95501e-06
7.06063e-06
7.24586e-06
7.39464e-06
7.62277e-06
5.18972e-06
5.19385e-06
5.19829e-06
5.20319e-06
5.20847e-06
5.21407e-06
5.21996e-06
5.22611e-06
5.23253e-06
5.23921e-06
5.24621e-06
5.25355e-06
5.2613e-06
5.26951e-06
5.27822e-06
5.28746e-06
5.29723e-06
5.30753e-06
5.31834e-06
5.32963e-06
5.34136e-06
5.35352e-06
5.36607e-06
5.379e-06
5.39228e-06
5.4059e-06
5.41988e-06
5.43421e-06
5.44893e-06
5.46404e-06
5.4796e-06
5.49563e-06
5.51219e-06
5.52933e-06
5.54712e-06
5.56563e-06
5.58491e-06
5.60497e-06
5.62609e-06
5.64795e-06
5.67146e-06
5.69538e-06
5.72194e-06
5.74813e-06
5.7785e-06
5.80716e-06
5.84217e-06
5.87381e-06
5.91431e-06
5.94982e-06
5.9965e-06
6.03713e-06
6.09088e-06
6.13774e-06
6.20041e-06
6.25355e-06
6.32895e-06
6.3871e-06
6.48061e-06
6.54329e-06
6.65988e-06
6.7297e-06
6.87409e-06
6.95626e-06
7.13399e-06
7.23395e-06
7.4527e-06
7.57405e-06
7.86318e-06
5.27107e-06
5.27609e-06
5.28143e-06
5.28714e-06
5.29327e-06
5.2997e-06
5.30648e-06
5.31352e-06
5.32085e-06
5.32842e-06
5.33622e-06
5.34427e-06
5.3526e-06
5.36124e-06
5.37023e-06
5.37962e-06
5.38944e-06
5.39972e-06
5.41047e-06
5.42171e-06
5.43343e-06
5.44562e-06
5.45826e-06
5.47135e-06
5.48486e-06
5.49879e-06
5.51315e-06
5.52793e-06
5.54316e-06
5.55883e-06
5.57503e-06
5.59172e-06
5.60905e-06
5.62698e-06
5.64567e-06
5.66508e-06
5.6854e-06
5.70651e-06
5.72882e-06
5.75193e-06
5.7768e-06
5.80219e-06
5.8303e-06
5.85821e-06
5.89032e-06
5.92105e-06
5.95794e-06
5.99219e-06
6.03438e-06
6.07353e-06
6.12103e-06
6.16726e-06
6.21973e-06
6.27549e-06
6.3334e-06
6.40001e-06
6.46663e-06
6.54272e-06
6.62556e-06
6.70776e-06
6.8168e-06
6.9036e-06
7.04734e-06
7.14228e-06
7.3254e-06
7.43648e-06
7.66033e-06
7.79454e-06
8.06759e-06
5.36358e-06
5.36959e-06
5.37586e-06
5.38247e-06
5.38941e-06
5.39661e-06
5.4041e-06
5.41184e-06
5.41984e-06
5.42808e-06
5.43655e-06
5.44525e-06
5.45417e-06
5.46334e-06
5.47276e-06
5.48248e-06
5.49251e-06
5.5029e-06
5.51367e-06
5.52485e-06
5.53647e-06
5.54855e-06
5.56109e-06
5.57411e-06
5.58762e-06
5.60161e-06
5.61612e-06
5.63113e-06
5.64671e-06
5.6628e-06
5.67957e-06
5.69688e-06
5.715e-06
5.73371e-06
5.75344e-06
5.7738e-06
5.79539e-06
5.81762e-06
5.84145e-06
5.86585e-06
5.8925e-06
5.91937e-06
5.94953e-06
5.97906e-06
6.01359e-06
6.04598e-06
6.08583e-06
6.12158e-06
6.16753e-06
6.20773e-06
6.25998e-06
6.30677e-06
6.36478e-06
6.42139e-06
6.48444e-06
6.55443e-06
6.6233e-06
6.70896e-06
6.78841e-06
6.88912e-06
6.98906e-06
7.10156e-06
7.2348e-06
7.35709e-06
7.53293e-06
7.66725e-06
7.89228e-06
8.03309e-06
8.38455e-06
5.46545e-06
5.47236e-06
5.47963e-06
5.48724e-06
5.49519e-06
5.50337e-06
5.51175e-06
5.52034e-06
5.52912e-06
5.53811e-06
5.54729e-06
5.55667e-06
5.56625e-06
5.57605e-06
5.58606e-06
5.59631e-06
5.60682e-06
5.61761e-06
5.62871e-06
5.64015e-06
5.65197e-06
5.66419e-06
5.67684e-06
5.68997e-06
5.70358e-06
5.71772e-06
5.73242e-06
5.74768e-06
5.76359e-06
5.7801e-06
5.7974e-06
5.8153e-06
5.83421e-06
5.85369e-06
5.87449e-06
5.89577e-06
5.91873e-06
5.94203e-06
5.96756e-06
5.9932e-06
6.02187e-06
6.05013e-06
6.08263e-06
6.1137e-06
6.15092e-06
6.18487e-06
6.22807e-06
6.26492e-06
6.31556e-06
6.35549e-06
6.41501e-06
6.45884e-06
6.52824e-06
6.57824e-06
6.65752e-06
6.71815e-06
6.80658e-06
6.88379e-06
6.98204e-06
7.08109e-06
7.19311e-06
7.31632e-06
7.45069e-06
7.59802e-06
7.76109e-06
7.93814e-06
8.12376e-06
8.34632e-06
8.60132e-06
5.58244e-06
5.58987e-06
5.59765e-06
5.60585e-06
5.61442e-06
5.62327e-06
5.63237e-06
5.64167e-06
5.65118e-06
5.66086e-06
5.67072e-06
5.68076e-06
5.69098e-06
5.70139e-06
5.712e-06
5.72283e-06
5.73389e-06
5.74522e-06
5.75682e-06
5.76875e-06
5.78101e-06
5.79366e-06
5.80671e-06
5.82024e-06
5.83424e-06
5.84881e-06
5.86392e-06
5.87969e-06
5.8961e-06
5.91325e-06
5.93119e-06
5.9499e-06
5.96964e-06
5.99009e-06
6.01197e-06
6.03436e-06
6.05869e-06
6.08323e-06
6.11047e-06
6.13749e-06
6.16818e-06
6.19799e-06
6.23275e-06
6.26566e-06
6.30525e-06
6.34147e-06
6.38707e-06
6.42664e-06
6.48e-06
6.52261e-06
6.58628e-06
6.63147e-06
6.7086e-06
6.75661e-06
6.84988e-06
6.90353e-06
7.01382e-06
7.07884e-06
7.20727e-06
7.28957e-06
7.43796e-06
7.54333e-06
7.71489e-06
7.84807e-06
8.04409e-06
8.20914e-06
8.42644e-06
8.67674e-06
9.03625e-06
5.71238e-06
5.72036e-06
5.72861e-06
5.73736e-06
5.74649e-06
5.75592e-06
5.76563e-06
5.77559e-06
5.78578e-06
5.79619e-06
5.8068e-06
5.81759e-06
5.82858e-06
5.83976e-06
5.85114e-06
5.86275e-06
5.87459e-06
5.88669e-06
5.89908e-06
5.91178e-06
5.92482e-06
5.93827e-06
5.9521e-06
5.96645e-06
5.98121e-06
5.99664e-06
6.01253e-06
6.02925e-06
6.04646e-06
6.06467e-06
6.08347e-06
6.10338e-06
6.12408e-06
6.14591e-06
6.16888e-06
6.19278e-06
6.21842e-06
6.24458e-06
6.27341e-06
6.30214e-06
6.33474e-06
6.36637e-06
6.4033e-06
6.43832e-06
6.48009e-06
6.51921e-06
6.5665e-06
6.61054e-06
6.6644e-06
6.71414e-06
6.77635e-06
6.83246e-06
6.90566e-06
6.96923e-06
7.05614e-06
7.13041e-06
7.2317e-06
7.32425e-06
7.43783e-06
7.55777e-06
7.68541e-06
7.83498e-06
7.98317e-06
8.16116e-06
8.33852e-06
8.53168e-06
8.8042e-06
9.09665e-06
9.22527e-06
5.86347e-06
5.87164e-06
5.88017e-06
5.8891e-06
5.89851e-06
5.90825e-06
5.91837e-06
5.92873e-06
5.93937e-06
5.95026e-06
5.96134e-06
5.97265e-06
5.98418e-06
5.99594e-06
6.00795e-06
6.02024e-06
6.0328e-06
6.04569e-06
6.0589e-06
6.0725e-06
6.08644e-06
6.10089e-06
6.11569e-06
6.13115e-06
6.14696e-06
6.16362e-06
6.1806e-06
6.19868e-06
6.21702e-06
6.23674e-06
6.25671e-06
6.27828e-06
6.30021e-06
6.32385e-06
6.34813e-06
6.37397e-06
6.40105e-06
6.42926e-06
6.45977e-06
6.49059e-06
6.52522e-06
6.55895e-06
6.59833e-06
6.63553e-06
6.68018e-06
6.72182e-06
6.77222e-06
6.81973e-06
6.87658e-06
6.93149e-06
6.99625e-06
7.06003e-06
7.13511e-06
7.20961e-06
7.29754e-06
7.38633e-06
7.48865e-06
7.59765e-06
7.71525e-06
7.85027e-06
7.98723e-06
8.14645e-06
8.31106e-06
8.49548e-06
8.68339e-06
8.96787e-06
9.17604e-06
9.28303e-06
9.26577e-06
6.03107e-06
6.0398e-06
6.04889e-06
6.05832e-06
6.06824e-06
6.07836e-06
6.0889e-06
6.09965e-06
6.11082e-06
6.12217e-06
6.13395e-06
6.14595e-06
6.15837e-06
6.171e-06
6.18399e-06
6.19729e-06
6.21088e-06
6.22483e-06
6.23912e-06
6.25388e-06
6.269e-06
6.28474e-06
6.30082e-06
6.31771e-06
6.3349e-06
6.35312e-06
6.37159e-06
6.39135e-06
6.41131e-06
6.43278e-06
6.4545e-06
6.4779e-06
6.5017e-06
6.52722e-06
6.5535e-06
6.58129e-06
6.61051e-06
6.64077e-06
6.67361e-06
6.70659e-06
6.74378e-06
6.77983e-06
6.82211e-06
6.86189e-06
6.90977e-06
6.95466e-06
7.00843e-06
7.06052e-06
7.12047e-06
7.18221e-06
7.24942e-06
7.32294e-06
7.39994e-06
7.48695e-06
7.57734e-06
7.68056e-06
7.78717e-06
7.91138e-06
8.03607e-06
8.18644e-06
8.3296e-06
8.51108e-06
8.67274e-06
8.90104e-06
9.14997e-06
9.2867e-06
9.34057e-06
9.31886e-06
9.14078e-06
6.22969e-06
6.23885e-06
6.2481e-06
6.25791e-06
6.26806e-06
6.27866e-06
6.2895e-06
6.30073e-06
6.31242e-06
6.32446e-06
6.33675e-06
6.34933e-06
6.36221e-06
6.37541e-06
6.38896e-06
6.4029e-06
6.41724e-06
6.43207e-06
6.44732e-06
6.46318e-06
6.47949e-06
6.49652e-06
6.514e-06
6.53236e-06
6.55116e-06
6.57098e-06
6.5913e-06
6.61273e-06
6.63481e-06
6.65798e-06
6.68213e-06
6.70719e-06
6.73375e-06
6.76092e-06
6.79019e-06
6.8197e-06
6.85211e-06
6.88427e-06
6.92049e-06
6.9556e-06
6.99643e-06
7.03485e-06
7.08121e-06
7.12356e-06
7.17629e-06
7.22387e-06
7.28363e-06
7.33861e-06
7.40581e-06
7.47124e-06
7.54645e-06
7.62566e-06
7.71066e-06
7.80655e-06
7.90443e-06
8.02095e-06
8.13287e-06
8.27695e-06
8.40213e-06
8.57835e-06
8.72738e-06
8.92267e-06
9.16142e-06
9.32635e-06
9.39322e-06
9.40161e-06
9.27181e-06
9.09276e-06
8.49724e-06
6.45411e-06
6.46418e-06
6.47453e-06
6.48524e-06
6.49632e-06
6.50781e-06
6.51963e-06
6.53182e-06
6.54432e-06
6.55707e-06
6.57026e-06
6.58368e-06
6.5976e-06
6.61185e-06
6.62664e-06
6.64195e-06
6.65772e-06
6.67414e-06
6.69103e-06
6.70854e-06
6.72656e-06
6.74533e-06
6.7647e-06
6.78488e-06
6.80582e-06
6.82752e-06
6.85025e-06
6.87356e-06
6.89837e-06
6.92339e-06
6.95054e-06
6.97749e-06
7.00721e-06
7.03643e-06
7.06886e-06
7.1008e-06
7.13621e-06
7.17139e-06
7.21031e-06
7.24919e-06
7.29241e-06
7.33545e-06
7.38405e-06
7.43185e-06
7.48717e-06
7.54073e-06
7.60427e-06
7.66529e-06
7.73827e-06
7.80975e-06
7.89319e-06
7.97892e-06
8.07432e-06
8.17939e-06
8.28592e-06
8.42059e-06
8.53273e-06
8.70495e-06
8.83432e-06
9.03628e-06
9.24262e-06
9.41374e-06
9.47419e-06
9.50009e-06
9.41747e-06
9.26625e-06
8.75957e-06
8.4139e-06
7.50316e-06
6.73071e-06
6.74067e-06
6.75087e-06
6.76154e-06
6.77268e-06
6.78422e-06
6.79624e-06
6.80854e-06
6.82148e-06
6.83468e-06
6.84856e-06
6.8627e-06
6.87759e-06
6.89282e-06
6.90885e-06
6.92525e-06
6.94249e-06
6.96025e-06
6.97891e-06
6.99811e-06
7.0181e-06
7.03881e-06
7.06033e-06
7.08249e-06
7.10577e-06
7.12954e-06
7.15487e-06
7.1804e-06
7.20802e-06
7.23549e-06
7.26557e-06
7.29531e-06
7.32794e-06
7.36041e-06
7.39562e-06
7.43141e-06
7.46942e-06
7.50914e-06
7.5506e-06
7.59463e-06
7.64062e-06
7.68919e-06
7.74135e-06
7.79451e-06
7.8553e-06
7.91304e-06
7.98542e-06
8.04912e-06
8.13424e-06
8.20871e-06
8.30652e-06
8.39592e-06
8.50858e-06
8.61986e-06
8.73917e-06
8.89503e-06
9.0114e-06
9.21968e-06
9.40028e-06
9.56679e-06
9.60913e-06
9.6287e-06
9.57056e-06
9.41941e-06
9.00164e-06
8.59126e-06
7.73546e-06
7.28863e-06
6.2871e-06
7.05631e-06
7.06745e-06
7.07899e-06
7.09068e-06
7.10307e-06
7.11559e-06
7.12886e-06
7.14235e-06
7.15668e-06
7.17129e-06
7.18682e-06
7.20267e-06
7.21948e-06
7.2367e-06
7.25493e-06
7.27349e-06
7.29311e-06
7.3132e-06
7.33445e-06
7.35612e-06
7.37881e-06
7.4021e-06
7.4264e-06
7.45118e-06
7.47731e-06
7.50386e-06
7.53208e-06
7.56064e-06
7.5911e-06
7.6219e-06
7.65477e-06
7.68811e-06
7.72349e-06
7.75975e-06
7.79786e-06
7.83756e-06
7.87873e-06
7.92246e-06
7.9673e-06
8.01571e-06
8.06524e-06
8.11908e-06
8.175e-06
8.23456e-06
8.30039e-06
8.36451e-06
8.44571e-06
8.51445e-06
8.61206e-06
8.6923e-06
8.80459e-06
8.897e-06
9.03185e-06
9.14954e-06
9.28631e-06
9.48917e-06
9.63707e-06
9.79176e-06
9.78965e-06
9.77359e-06
9.71017e-06
9.55549e-06
9.16872e-06
8.68694e-06
7.98012e-06
7.20147e-06
6.34997e-06
5.70926e-06
5.0955e-06
7.46679e-06
7.47768e-06
7.48897e-06
7.5008e-06
7.5134e-06
7.52628e-06
7.54006e-06
7.55396e-06
7.56898e-06
7.58417e-06
7.60057e-06
7.61717e-06
7.6351e-06
7.65321e-06
7.67284e-06
7.69267e-06
7.71422e-06
7.73597e-06
7.75963e-06
7.78325e-06
7.80898e-06
7.83472e-06
7.86276e-06
7.89066e-06
7.92062e-06
7.95079e-06
7.98273e-06
8.01505e-06
8.04911e-06
8.08401e-06
8.12055e-06
8.15832e-06
8.19769e-06
8.23868e-06
8.28128e-06
8.32608e-06
8.37238e-06
8.42194e-06
8.47242e-06
8.52789e-06
8.58321e-06
8.64593e-06
8.70726e-06
8.77821e-06
8.84896e-06
8.92558e-06
9.01374e-06
9.09339e-06
9.19617e-06
9.29077e-06
9.40246e-06
9.50817e-06
9.6741e-06
9.83578e-06
9.95093e-06
1.00566e-05
1.00273e-05
9.96419e-06
9.85507e-06
9.6308e-06
9.22142e-06
8.68781e-06
7.95839e-06
7.23057e-06
6.33384e-06
5.72817e-06
5.28489e-06
5.00149e-06
4.93309e-06
7.98021e-06
7.99326e-06
8.00649e-06
8.0205e-06
8.0352e-06
8.05038e-06
8.06641e-06
8.08309e-06
8.10031e-06
8.11862e-06
8.13785e-06
8.15781e-06
8.17949e-06
8.20177e-06
8.22525e-06
8.24931e-06
8.27481e-06
8.30045e-06
8.32814e-06
8.35553e-06
8.38508e-06
8.41433e-06
8.44589e-06
8.47727e-06
8.51091e-06
8.54468e-06
8.58047e-06
8.61689e-06
8.65501e-06
8.69429e-06
8.73511e-06
8.77737e-06
8.82148e-06
8.86694e-06
8.9149e-06
8.9641e-06
9.01628e-06
9.07029e-06
9.12705e-06
9.18756e-06
9.249e-06
9.31847e-06
9.38351e-06
9.46546e-06
9.53271e-06
9.62573e-06
9.70326e-06
9.80106e-06
9.87501e-06
1.00049e-05
1.00898e-05
1.0255e-05
1.03744e-05
1.03686e-05
1.02964e-05
1.02029e-05
9.98421e-06
9.64645e-06
9.17483e-06
8.59473e-06
7.95834e-06
7.31768e-06
6.67666e-06
6.27661e-06
5.67478e-06
5.60571e-06
5.32213e-06
6.129e-06
7.02972e-06
8.65979e-06
8.67207e-06
8.68506e-06
8.69873e-06
8.71348e-06
8.72909e-06
8.74572e-06
8.76289e-06
8.78196e-06
8.80166e-06
8.8235e-06
8.84538e-06
8.86918e-06
8.89359e-06
8.9199e-06
8.9463e-06
8.97458e-06
9.00297e-06
9.03336e-06
9.06413e-06
9.09687e-06
9.13035e-06
9.16569e-06
9.20211e-06
9.24032e-06
9.27988e-06
9.32119e-06
9.36409e-06
9.40873e-06
9.4552e-06
9.50349e-06
9.55375e-06
9.60608e-06
9.6603e-06
9.7171e-06
9.77563e-06
9.83686e-06
9.89967e-06
9.96465e-06
1.00314e-05
1.00986e-05
1.01694e-05
1.02349e-05
1.03116e-05
1.03684e-05
1.04537e-05
1.05105e-05
1.06013e-05
1.06323e-05
1.0756e-05
1.07712e-05
1.07281e-05
1.065e-05
1.05051e-05
1.02827e-05
9.95689e-06
9.56023e-06
9.07275e-06
8.60055e-06
8.08026e-06
7.67147e-06
7.01727e-06
7.21048e-06
7.36515e-06
6.92446e-06
7.80807e-06
7.95517e-06
9.56843e-06
1.10169e-05
9.58666e-06
9.60241e-06
9.61905e-06
9.63634e-06
9.65524e-06
9.67553e-06
9.69689e-06
9.72042e-06
9.74612e-06
9.77375e-06
9.80356e-06
9.83443e-06
9.86735e-06
9.90107e-06
9.93673e-06
9.973e-06
1.00106e-05
1.00486e-05
1.00876e-05
1.01274e-05
1.01678e-05
1.02092e-05
1.02511e-05
1.0294e-05
1.03374e-05
1.03815e-05
1.04261e-05
1.04712e-05
1.05166e-05
1.05624e-05
1.06079e-05
1.06539e-05
1.06979e-05
1.0744e-05
1.07853e-05
1.08298e-05
1.08673e-05
1.09098e-05
1.0944e-05
1.09824e-05
1.10159e-05
1.10473e-05
1.10834e-05
1.10956e-05
1.11551e-05
1.11769e-05
1.13062e-05
1.1299e-05
1.12913e-05
1.11498e-05
1.10912e-05
1.08748e-05
1.09842e-05
1.09482e-05
1.07318e-05
1.03714e-05
1.00192e-05
9.68118e-06
9.5099e-06
9.24088e-06
9.11293e-06
8.60089e-06
9.36209e-06
1.01227e-05
1.10013e-05
1.05659e-05
1.20518e-05
1.59216e-05
2.48977e-05
1.13405e-05
1.13246e-05
1.13488e-05
1.13335e-05
1.13306e-05
1.13334e-05
1.13465e-05
1.13534e-05
1.13766e-05
1.13863e-05
1.14185e-05
1.14334e-05
1.14745e-05
1.14866e-05
1.14661e-05
1.14344e-05
1.14601e-05
1.14739e-05
1.14408e-05
1.1411e-05
1.1396e-05
1.13901e-05
1.1391e-05
1.13972e-05
1.14069e-05
1.14184e-05
1.14331e-05
1.14477e-05
1.14564e-05
1.14877e-05
1.15138e-05
1.15364e-05
1.15523e-05
1.16087e-05
1.16344e-05
1.1664e-05
1.16942e-05
1.1697e-05
1.17086e-05
1.17315e-05
1.1813e-05
1.1847e-05
1.20188e-05
1.21135e-05
1.22534e-05
1.24111e-05
1.29702e-05
1.29668e-05
1.30409e-05
1.30594e-05
1.38356e-05
1.46532e-05
1.55867e-05
1.69712e-05
1.64965e-05
1.57378e-05
1.48506e-05
1.40695e-05
1.32185e-05
1.2477e-05
1.19602e-05
1.14041e-05
1.10954e-05
1.20606e-05
1.27304e-05
1.25923e-05
1.14348e-05
1.15367e-05
1.29284e-05
1.14456e-05
1.1405e-05
1.14564e-05
1.14226e-05
1.14241e-05
1.1481e-05
1.14284e-05
1.14889e-05
1.14363e-05
1.15047e-05
1.14853e-05
1.14497e-05
1.15305e-05
1.14899e-05
1.15718e-05
1.15506e-05
1.15279e-05
1.15594e-05
1.16473e-05
1.16272e-05
1.15761e-05
1.167e-05
1.16313e-05
1.16467e-05
1.17409e-05
1.16663e-05
1.17642e-05
1.16999e-05
1.17683e-05
1.18832e-05
1.20188e-05
1.22109e-05
1.2439e-05
1.27629e-05
1.31322e-05
1.3663e-05
1.42204e-05
1.49759e-05
1.58028e-05
1.68209e-05
1.78685e-05
1.90464e-05
2.01751e-05
2.13488e-05
2.24625e-05
2.35817e-05
2.449e-05
2.54545e-05
2.57143e-05
2.67626e-05
2.66773e-05
2.61536e-05
2.46715e-05
2.24558e-05
2.01421e-05
1.79142e-05
1.56994e-05
1.40017e-05
1.1697e-05
9.08129e-06
3.79445e-06
2.67777e-06
2.69732e-06
3.03436e-06
3.9584e-06
4.49588e-06
5.21122e-06
6.04171e-06
6.39148e-06
3.73199e-05
3.81949e-05
3.91003e-05
4.00309e-05
4.09864e-05
4.19703e-05
4.29734e-05
4.39993e-05
4.50454e-05
4.6105e-05
4.71888e-05
4.82714e-05
4.93845e-05
5.04843e-05
5.16157e-05
5.27243e-05
5.38644e-05
5.4971e-05
5.6113e-05
5.721e-05
5.834e-05
5.94182e-05
6.05293e-05
6.15798e-05
6.26556e-05
6.36825e-05
6.47025e-05
6.57014e-05
6.65977e-05
6.74706e-05
6.81709e-05
6.88553e-05
6.93767e-05
6.97982e-05
6.98119e-05
7.06517e-05
7.01576e-05
7.02321e-05
6.99477e-05
6.93774e-05
6.85274e-05
6.72246e-05
6.49292e-05
6.22161e-05
5.9034e-05
5.53289e-05
5.1021e-05
4.60307e-05
4.02196e-05
3.35344e-05
2.57068e-05
1.72041e-05
9.07783e-06
3.19578e-06
1.47747e-06
1.63216e-06
2.15913e-06
2.33858e-06
2.30263e-06
2.09098e-06
1.43434e-06
1.05215e-06
8.9355e-07
8.64262e-07
8.63916e-07
8.05258e-07
7.51912e-07
7.73011e-07
7.97022e-07
4.81005e-06
4.80896e-06
4.80685e-06
4.80401e-06
4.80052e-06
4.79585e-06
4.79127e-06
4.78777e-06
4.78654e-06
4.78361e-06
4.77895e-06
4.77631e-06
4.77815e-06
4.77816e-06
4.77864e-06
4.7746e-06
4.77426e-06
4.77149e-06
4.77023e-06
4.76557e-06
4.76654e-06
4.76801e-06
4.76662e-06
4.76341e-06
4.76168e-06
4.75695e-06
4.75699e-06
4.75724e-06
4.76074e-06
4.75806e-06
4.75716e-06
4.758e-06
4.7594e-06
4.75663e-06
4.75482e-06
4.75355e-06
4.75421e-06
4.75181e-06
4.74765e-06
4.74739e-06
4.7428e-06
4.74204e-06
4.73938e-06
4.73898e-06
4.73949e-06
4.73627e-06
4.73038e-06
4.73049e-06
4.72786e-06
4.72316e-06
4.7163e-06
4.71253e-06
4.71312e-06
4.7124e-06
4.71366e-06
4.71356e-06
4.71572e-06
4.71534e-06
4.71299e-06
4.84017e-06
4.83756e-06
4.83393e-06
4.83023e-06
4.82638e-06
4.82285e-06
4.82024e-06
4.81841e-06
4.81694e-06
4.81413e-06
4.81152e-06
4.81068e-06
4.81008e-06
4.80754e-06
4.80318e-06
4.79995e-06
4.79989e-06
4.79915e-06
4.79392e-06
4.79111e-06
4.79222e-06
4.79297e-06
4.79098e-06
4.78778e-06
4.78466e-06
4.78023e-06
4.78048e-06
4.78113e-06
4.78383e-06
4.78125e-06
4.78076e-06
4.78132e-06
4.78245e-06
4.78038e-06
4.77846e-06
4.77703e-06
4.7774e-06
4.77629e-06
4.77272e-06
4.77127e-06
4.76725e-06
4.76634e-06
4.76504e-06
4.76382e-06
4.76412e-06
4.7634e-06
4.75873e-06
4.75596e-06
4.75626e-06
4.75417e-06
4.74972e-06
4.74354e-06
4.73963e-06
4.73957e-06
4.73857e-06
4.7409e-06
4.74289e-06
4.74346e-06
4.74248e-06
4.86813e-06
4.86559e-06
4.86267e-06
4.86021e-06
4.85795e-06
4.85624e-06
4.85489e-06
4.85346e-06
4.85152e-06
4.8488e-06
4.84636e-06
4.84371e-06
4.83973e-06
4.83492e-06
4.83125e-06
4.83055e-06
4.8305e-06
4.8259e-06
4.82095e-06
4.81999e-06
4.82123e-06
4.82151e-06
4.81851e-06
4.81498e-06
4.81067e-06
4.80677e-06
4.80705e-06
4.8081e-06
4.81013e-06
4.80774e-06
4.80746e-06
4.80774e-06
4.80859e-06
4.80722e-06
4.80539e-06
4.80336e-06
4.80351e-06
4.80307e-06
4.80065e-06
4.79863e-06
4.79447e-06
4.79418e-06
4.79406e-06
4.79348e-06
4.7922e-06
4.79188e-06
4.78949e-06
4.78549e-06
4.78498e-06
4.78444e-06
4.78159e-06
4.77667e-06
4.77173e-06
4.76832e-06
4.76889e-06
4.76821e-06
4.76858e-06
4.77172e-06
4.7726e-06
4.90114e-06
4.89961e-06
4.89789e-06
4.8966e-06
4.89524e-06
4.89395e-06
4.8923e-06
4.89008e-06
4.88714e-06
4.88362e-06
4.87985e-06
4.87539e-06
4.87073e-06
4.8672e-06
4.86554e-06
4.86489e-06
4.86159e-06
4.8554e-06
4.85235e-06
4.85233e-06
4.85277e-06
4.85263e-06
4.84818e-06
4.84422e-06
4.83907e-06
4.83586e-06
4.83622e-06
4.8375e-06
4.83897e-06
4.83675e-06
4.83659e-06
4.8367e-06
4.8374e-06
4.83661e-06
4.83517e-06
4.83288e-06
4.83319e-06
4.83305e-06
4.83155e-06
4.82963e-06
4.82571e-06
4.82284e-06
4.82246e-06
4.82296e-06
4.82446e-06
4.82413e-06
4.82158e-06
4.81829e-06
4.81779e-06
4.81754e-06
4.81929e-06
4.81793e-06
4.81413e-06
4.80914e-06
4.8041e-06
4.80483e-06
4.80514e-06
4.80604e-06
4.80534e-06
4.94058e-06
4.93951e-06
4.93811e-06
4.93677e-06
4.93497e-06
4.93285e-06
4.93006e-06
4.92668e-06
4.92274e-06
4.91847e-06
4.91408e-06
4.90984e-06
4.90652e-06
4.90444e-06
4.90272e-06
4.89962e-06
4.89377e-06
4.88908e-06
4.88794e-06
4.88761e-06
4.88819e-06
4.8869e-06
4.88106e-06
4.87681e-06
4.87116e-06
4.86866e-06
4.86909e-06
4.87054e-06
4.87163e-06
4.86954e-06
4.86937e-06
4.86934e-06
4.86993e-06
4.86953e-06
4.86845e-06
4.86638e-06
4.86544e-06
4.86577e-06
4.86545e-06
4.86438e-06
4.86138e-06
4.85834e-06
4.85839e-06
4.85738e-06
4.85781e-06
4.86078e-06
4.86083e-06
4.85698e-06
4.85391e-06
4.85469e-06
4.85323e-06
4.85423e-06
4.85452e-06
4.85409e-06
4.85193e-06
4.8481e-06
4.8454e-06
4.84663e-06
4.84689e-06
4.98308e-06
4.9815e-06
4.97945e-06
4.97725e-06
4.97449e-06
4.9714e-06
4.96778e-06
4.96388e-06
4.95979e-06
4.9558e-06
4.95212e-06
4.94903e-06
4.94658e-06
4.94415e-06
4.94071e-06
4.93572e-06
4.93026e-06
4.92788e-06
4.9278e-06
4.92728e-06
4.92659e-06
4.92289e-06
4.91628e-06
4.91179e-06
4.90593e-06
4.90425e-06
4.90479e-06
4.90634e-06
4.90704e-06
4.90507e-06
4.90494e-06
4.90486e-06
4.90541e-06
4.90547e-06
4.90481e-06
4.90331e-06
4.90193e-06
4.90332e-06
4.90279e-06
4.90232e-06
4.90095e-06
4.89723e-06
4.89429e-06
4.8934e-06
4.89338e-06
4.89542e-06
4.89725e-06
4.90122e-06
4.89959e-06
4.90112e-06
4.89939e-06
4.90081e-06
4.90113e-06
4.90051e-06
4.89998e-06
4.89904e-06
4.89782e-06
4.89713e-06
4.89641e-06
5.02719e-06
5.02491e-06
5.02223e-06
5.01944e-06
5.01624e-06
5.01289e-06
5.0093e-06
5.00571e-06
5.00217e-06
4.99888e-06
4.99582e-06
4.99295e-06
4.98983e-06
4.98596e-06
4.98116e-06
4.9761e-06
4.97246e-06
4.97165e-06
4.97108e-06
4.97116e-06
4.96821e-06
4.96251e-06
4.95575e-06
4.95109e-06
4.94553e-06
4.94462e-06
4.94522e-06
4.94684e-06
4.94727e-06
4.94542e-06
4.94525e-06
4.94513e-06
4.94571e-06
4.94586e-06
4.94573e-06
4.94474e-06
4.94314e-06
4.94225e-06
4.94485e-06
4.94487e-06
4.94397e-06
4.94197e-06
4.93842e-06
4.93702e-06
4.93708e-06
4.93727e-06
4.9364e-06
4.9387e-06
4.94036e-06
4.94267e-06
4.94283e-06
4.94656e-06
4.9475e-06
4.94858e-06
4.94877e-06
4.95131e-06
4.9497e-06
4.95106e-06
4.95075e-06
5.07332e-06
5.07079e-06
5.06799e-06
5.06516e-06
5.06207e-06
5.05894e-06
5.05568e-06
5.05245e-06
5.04921e-06
5.04598e-06
5.04264e-06
5.039e-06
5.03484e-06
5.03022e-06
5.02566e-06
5.02211e-06
5.02045e-06
5.02035e-06
5.01945e-06
5.0171e-06
5.01181e-06
5.00487e-06
4.9983e-06
4.9935e-06
4.98863e-06
4.98844e-06
4.98903e-06
4.99064e-06
4.99075e-06
4.989e-06
4.98889e-06
4.98873e-06
4.98925e-06
4.9902e-06
4.99007e-06
4.98963e-06