/*--------------------------------*- C++ -*----------------------------------*\
| =========                 |                                                 |
| \\      /  F ield         | OpenFOAM: The Open Source CFD Toolbox           |
|  \\    /   O peration     | Version:  2312                                  |
|   \\  /    A nd           | Website:  www.openfoam.com                      |
|    \\/     M anipulation  |                                                 |
\*---------------------------------------------------------------------------*/
FoamFile
{
    version     2.0;
    format      ascii;
    arch        "LSB;label=32;scalar=64";
    class       volScalarField;
    location    "1500";
    object      nut;
}
// * * * * * * * * * * * * * * * * * * * * * * * * * * * * * * * * * * * * * //

dimensions      [0 2 -1 0 0 0 0];

internalField   nonuniform List<scalar> 
76025
(
6.09377e-05
6.12354e-05
6.18223e-05
6.21304e-05
6.17467e-05
6.01675e-05
6.14298e-05
6.05469e-05
6.17265e-05
6.14562e-05
6.11054e-05
6.05871e-05
6.1005e-05
6.06525e-05
5.99362e-05
6.10085e-05
5.9683e-05
5.98224e-05
5.94012e-05
5.95427e-05
5.80578e-05
5.78676e-05
5.73312e-05
5.60489e-05
5.57774e-05
5.48185e-05
5.23365e-05
5.34973e-05
5.12178e-05
5.0156e-05
5.0326e-05
4.90666e-05
4.68877e-05
4.79578e-05
4.6673e-05
4.68599e-05
4.45224e-05
4.26179e-05
4.305e-05
4.2466e-05
4.18431e-05
3.97628e-05
3.82285e-05
3.87534e-05
3.81985e-05
3.76561e-05
3.67242e-05
3.72355e-05
3.73905e-05
3.76959e-05
3.77889e-05
3.79446e-05
3.86387e-05
3.91696e-05
3.97811e-05
4.1032e-05
4.11419e-05
4.08762e-05
4.02106e-05
4.05783e-05
4.01765e-05
3.8955e-05
3.93777e-05
3.91448e-05
3.91184e-05
3.91535e-05
3.84021e-05
3.8282e-05
3.97012e-05
5.70664e-05
5.73642e-05
5.75746e-05
5.77239e-05
5.77155e-05
5.72552e-05
5.73269e-05
5.69331e-05
5.69467e-05
5.70482e-05
5.70866e-05
5.70178e-05
5.70124e-05
5.68797e-05
5.66711e-05
5.67675e-05
5.63805e-05
5.63444e-05
5.60306e-05
5.5881e-05
5.54273e-05
5.5135e-05
5.47072e-05
5.40995e-05
5.35526e-05
5.30249e-05
5.23643e-05
5.182e-05
5.10704e-05
5.02676e-05
4.96912e-05
4.915e-05
4.86034e-05
4.81752e-05
4.75754e-05
4.69387e-05
4.63981e-05
4.61282e-05
4.59123e-05
4.55747e-05
4.51595e-05
4.49867e-05
4.513e-05
4.51656e-05
4.50074e-05
4.49311e-05
4.51903e-05
4.52804e-05
4.51274e-05
4.51287e-05
4.51903e-05
4.51754e-05
4.53967e-05
4.55986e-05
4.53438e-05
4.48285e-05
4.46011e-05
4.39631e-05
4.35763e-05
4.29419e-05
4.26764e-05
4.20846e-05
4.18978e-05
4.12827e-05
4.08581e-05
3.99378e-05
4.02512e-05
4.02506e-05
4.11224e-05
5.33802e-05
5.35238e-05
5.34932e-05
5.34706e-05
5.34966e-05
5.35337e-05
5.35044e-05
5.33892e-05
5.32459e-05
5.31534e-05
5.30932e-05
5.30896e-05
5.30881e-05
5.30544e-05
5.29786e-05
5.29069e-05
5.28234e-05
5.27575e-05
5.26757e-05
5.256e-05
5.24407e-05
5.22854e-05
5.20656e-05
5.17766e-05
5.14925e-05
5.1222e-05
5.09681e-05
5.05791e-05
5.01597e-05
4.97452e-05
4.93907e-05
4.91133e-05
4.88347e-05
4.84937e-05
4.81464e-05
4.77734e-05
4.74587e-05
4.72553e-05
4.70933e-05
4.69274e-05
4.67368e-05
4.65993e-05
4.65116e-05
4.63787e-05
4.62181e-05
4.60777e-05
4.5993e-05
4.58331e-05
4.56095e-05
4.5404e-05
4.52287e-05
4.49739e-05
4.47787e-05
4.44593e-05
4.40972e-05
4.35478e-05
4.32038e-05
4.2564e-05
4.21043e-05
4.14427e-05
4.11627e-05
4.05301e-05
4.01781e-05
3.95107e-05
3.9288e-05
3.86705e-05
3.88162e-05
3.85131e-05
3.89067e-05
5.01573e-05
5.01938e-05
5.0026e-05
4.98331e-05
4.97451e-05
4.97351e-05
4.97274e-05
4.97219e-05
4.96875e-05
4.96337e-05
4.9572e-05
4.95259e-05
4.95049e-05
4.94935e-05
4.94807e-05
4.94609e-05
4.94536e-05
4.9443e-05
4.94456e-05
4.94358e-05
4.94197e-05
4.93801e-05
4.93222e-05
4.92406e-05
4.91512e-05
4.90456e-05
4.89224e-05
4.87659e-05
4.85889e-05
4.84195e-05
4.82752e-05
4.81373e-05
4.79772e-05
4.77962e-05
4.76085e-05
4.74109e-05
4.72143e-05
4.70464e-05
4.69112e-05
4.67734e-05
4.66078e-05
4.64304e-05
4.62707e-05
4.6111e-05
4.59393e-05
4.57416e-05
4.55493e-05
4.53178e-05
4.50638e-05
4.4758e-05
4.44782e-05
4.41253e-05
4.38223e-05
4.34136e-05
4.30502e-05
4.25079e-05
4.2109e-05
4.14897e-05
4.10784e-05
4.04322e-05
4.01007e-05
3.94669e-05
3.91728e-05
3.85584e-05
3.84052e-05
3.78388e-05
3.79985e-05
3.76088e-05
3.80458e-05
4.68755e-05
4.70568e-05
4.69139e-05
4.67194e-05
4.65334e-05
4.64215e-05
4.63581e-05
4.63327e-05
4.63246e-05
4.63179e-05
4.63037e-05
4.6284e-05
4.62685e-05
4.62621e-05
4.62651e-05
4.62743e-05
4.62926e-05
4.6317e-05
4.63504e-05
4.63875e-05
4.64256e-05
4.64595e-05
4.64881e-05
4.65065e-05
4.65147e-05
4.65135e-05
4.65018e-05
4.64791e-05
4.6446e-05
4.64077e-05
4.63691e-05
4.63264e-05
4.6272e-05
4.62047e-05
4.61256e-05
4.60355e-05
4.59397e-05
4.58473e-05
4.57599e-05
4.56584e-05
4.55328e-05
4.53879e-05
4.52434e-05
4.50832e-05
4.4907e-05
4.46947e-05
4.44787e-05
4.4217e-05
4.3949e-05
4.3617e-05
4.33172e-05
4.29374e-05
4.26148e-05
4.21728e-05
4.1813e-05
4.12779e-05
4.08951e-05
4.03012e-05
3.99317e-05
3.93084e-05
3.90038e-05
3.84036e-05
3.81662e-05
3.7594e-05
3.75018e-05
3.70041e-05
3.71995e-05
3.68383e-05
3.70792e-05
4.35391e-05
4.38085e-05
4.3843e-05
4.37412e-05
4.36284e-05
4.35562e-05
4.34569e-05
4.33519e-05
4.32895e-05
4.32575e-05
4.32442e-05
4.324e-05
4.32407e-05
4.3246e-05
4.3257e-05
4.32748e-05
4.3301e-05
4.33358e-05
4.33794e-05
4.34306e-05
4.34882e-05
4.35497e-05
4.36127e-05
4.36745e-05
4.37336e-05
4.37904e-05
4.38436e-05
4.38914e-05
4.39329e-05
4.39687e-05
4.40001e-05
4.40272e-05
4.40471e-05
4.40567e-05
4.4055e-05
4.40423e-05
4.40204e-05
4.39901e-05
4.39526e-05
4.38946e-05
4.38124e-05
4.37043e-05
4.35856e-05
4.34411e-05
4.32842e-05
4.30876e-05
4.28875e-05
4.26354e-05
4.23908e-05
4.20765e-05
4.1798e-05
4.14315e-05
4.11265e-05
4.07033e-05
4.03721e-05
3.9884e-05
3.95426e-05
3.9005e-05
3.86912e-05
3.81282e-05
3.78785e-05
3.73352e-05
3.71644e-05
3.66587e-05
3.66377e-05
3.62101e-05
3.64739e-05
3.62314e-05
3.65456e-05
4.04507e-05
4.07574e-05
4.08343e-05
4.08204e-05
4.0767e-05
4.07269e-05
4.06572e-05
4.05851e-05
4.05234e-05
4.04785e-05
4.0452e-05
4.04413e-05
4.0443e-05
4.04539e-05
4.04722e-05
4.04973e-05
4.05294e-05
4.05688e-05
4.06155e-05
4.06693e-05
4.073e-05
4.07965e-05
4.0868e-05
4.09433e-05
4.10216e-05
4.11018e-05
4.11827e-05
4.12626e-05
4.13407e-05
4.14162e-05
4.14889e-05
4.15579e-05
4.16213e-05
4.16768e-05
4.17231e-05
4.17591e-05
4.1785e-05
4.17995e-05
4.18039e-05
4.17845e-05
4.17417e-05
4.16721e-05
4.15915e-05
4.14821e-05
4.13651e-05
4.12058e-05
4.10484e-05
4.08339e-05
4.06375e-05
4.0365e-05
4.01355e-05
3.9811e-05
3.95552e-05
3.91822e-05
3.89045e-05
3.84847e-05
3.82026e-05
3.77443e-05
3.74963e-05
3.70119e-05
3.68323e-05
3.63587e-05
3.62591e-05
3.58233e-05
3.58711e-05
3.55035e-05
3.58477e-05
3.56092e-05
3.61213e-05
3.76411e-05
3.78723e-05
3.79303e-05
3.79304e-05
3.79493e-05
3.79738e-05
3.798e-05
3.79688e-05
3.79484e-05
3.79266e-05
3.79094e-05
3.79e-05
3.79007e-05
3.79114e-05
3.79319e-05
3.79613e-05
3.79986e-05
3.8043e-05
3.80942e-05
3.81515e-05
3.82148e-05
3.82835e-05
3.83573e-05
3.84359e-05
3.85186e-05
3.86049e-05
3.86939e-05
3.87849e-05
3.88769e-05
3.89689e-05
3.90603e-05
3.91498e-05
3.92361e-05
3.93173e-05
3.93922e-05
3.94594e-05
3.95186e-05
3.95675e-05
3.96076e-05
3.96232e-05
3.96188e-05
3.95899e-05
3.9553e-05
3.94862e-05
3.94169e-05
3.93037e-05
3.91993e-05
3.90339e-05
3.88962e-05
3.86766e-05
3.85099e-05
3.8241e-05
3.80506e-05
3.77397e-05
3.75303e-05
3.71846e-05
3.69719e-05
3.65973e-05
3.64166e-05
3.6015e-05
3.59038e-05
3.54984e-05
3.54664e-05
3.50959e-05
3.52011e-05
3.48876e-05
3.52712e-05
3.50243e-05
3.58165e-05
3.51265e-05
3.53316e-05
3.53746e-05
3.53654e-05
3.53895e-05
3.54329e-05
3.54725e-05
3.55028e-05
3.55252e-05
3.55418e-05
3.5555e-05
3.55671e-05
3.55811e-05
3.55993e-05
3.56238e-05
3.56557e-05
3.56952e-05
3.57424e-05
3.57968e-05
3.58578e-05
3.5925e-05
3.59978e-05
3.60756e-05
3.61581e-05
3.62448e-05
3.63352e-05
3.64291e-05
3.65257e-05
3.66246e-05
3.67251e-05
3.68265e-05
3.69279e-05
3.70283e-05
3.71263e-05
3.72209e-05
3.73108e-05
3.73954e-05
3.7472e-05
3.75424e-05
3.75895e-05
3.76206e-05
3.7631e-05
3.76368e-05
3.76136e-05
3.75929e-05
3.75282e-05
3.74789e-05
3.73664e-05
3.72903e-05
3.71273e-05
3.70286e-05
3.68171e-05
3.67009e-05
3.64474e-05
3.63191e-05
3.60319e-05
3.59029e-05
3.55904e-05
3.54844e-05
3.51502e-05
3.51009e-05
3.4755e-05
3.47868e-05
3.44732e-05
3.4624e-05
3.4383e-05
3.47469e-05
3.46912e-05
3.47687e-05
3.28089e-05
3.30107e-05
3.30561e-05
3.30475e-05
3.30693e-05
3.31124e-05
3.31588e-05
3.32045e-05
3.32499e-05
3.3295e-05
3.33386e-05
3.338e-05
3.34196e-05
3.34585e-05
3.34985e-05
3.35414e-05
3.35886e-05
3.36413e-05
3.36999e-05
3.37648e-05
3.38357e-05
3.39126e-05
3.39949e-05
3.40825e-05
3.41748e-05
3.42714e-05
3.4372e-05
3.4476e-05
3.45832e-05
3.4693e-05
3.48049e-05
3.49182e-05
3.50322e-05
3.51459e-05
3.52586e-05
3.53692e-05
3.54769e-05
3.55794e-05
3.56777e-05
3.57556e-05
3.582e-05
3.58696e-05
3.59164e-05
3.59374e-05
3.59632e-05
3.59486e-05
3.59508e-05
3.58944e-05
3.58736e-05
3.57721e-05
3.57312e-05
3.55846e-05
3.55288e-05
3.53393e-05
3.52767e-05
3.50472e-05
3.49906e-05
3.47263e-05
3.46918e-05
3.44039e-05
3.44116e-05
3.41176e-05
3.41982e-05
3.39341e-05
3.41325e-05
3.39798e-05
3.43302e-05
3.44861e-05
3.43101e-05
3.06508e-05
3.08538e-05
3.09092e-05
3.09113e-05
3.09383e-05
3.09836e-05
3.10319e-05
3.10815e-05
3.11348e-05
3.11923e-05
3.12532e-05
3.13158e-05
3.13786e-05
3.14412e-05
3.15035e-05
3.15664e-05
3.16307e-05
3.16974e-05
3.17675e-05
3.18416e-05
3.19204e-05
3.20042e-05
3.20932e-05
3.21874e-05
3.22867e-05
3.2391e-05
3.25e-05
3.26134e-05
3.27311e-05
3.28524e-05
3.29772e-05
3.31048e-05
3.32349e-05
3.33665e-05
3.34992e-05
3.36321e-05
3.37641e-05
3.38939e-05
3.40205e-05
3.41306e-05
3.42289e-05
3.4318e-05
3.44049e-05
3.44707e-05
3.45405e-05
3.45768e-05
3.46255e-05
3.4627e-05
3.46517e-05
3.46169e-05
3.46153e-05
3.45462e-05
3.45185e-05
3.44175e-05
3.43703e-05
3.42351e-05
3.41871e-05
3.40101e-05
3.39892e-05
3.377e-05
3.38037e-05
3.35607e-05
3.36829e-05
3.34527e-05
3.37324e-05
3.35678e-05
3.41379e-05
3.42981e-05
3.42239e-05
2.86352e-05
2.88359e-05
2.88999e-05
2.89133e-05
2.89493e-05
2.90012e-05
2.90552e-05
2.91094e-05
2.91674e-05
2.92306e-05
2.92992e-05
2.93723e-05
2.94488e-05
2.95278e-05
2.96085e-05
2.96909e-05
2.97749e-05
2.98606e-05
2.99484e-05
3.0039e-05
3.01326e-05
3.023e-05
3.03315e-05
3.04375e-05
3.05483e-05
3.06641e-05
3.0785e-05
3.09109e-05
3.10419e-05
3.11776e-05
3.13182e-05
3.14629e-05
3.16118e-05
3.17638e-05
3.19192e-05
3.20765e-05
3.22355e-05
3.2394e-05
3.25503e-05
3.26935e-05
3.28284e-05
3.29565e-05
3.30844e-05
3.31939e-05
3.33076e-05
3.33915e-05
3.34858e-05
3.35388e-05
3.36077e-05
3.36293e-05
3.3665e-05
3.36605e-05
3.3655e-05
3.36322e-05
3.35839e-05
3.35454e-05
3.34694e-05
3.34054e-05
3.33404e-05
3.32343e-05
3.32332e-05
3.30832e-05
3.32009e-05
3.30389e-05
3.33453e-05
3.32363e-05
3.38808e-05
3.3975e-05
3.4781e-05
2.67718e-05
2.69685e-05
2.70374e-05
2.70588e-05
2.71011e-05
2.71584e-05
2.72174e-05
2.72765e-05
2.73386e-05
2.74055e-05
2.74779e-05
2.75556e-05
2.7638e-05
2.77249e-05
2.78158e-05
2.79105e-05
2.80086e-05
2.811e-05
2.82145e-05
2.83222e-05
2.84333e-05
2.85479e-05
2.86664e-05
2.87892e-05
2.89165e-05
2.90488e-05
2.91863e-05
2.93291e-05
2.94777e-05
2.96317e-05
2.97917e-05
2.99568e-05
3.01279e-05
3.03032e-05
3.04843e-05
3.06682e-05
3.08568e-05
3.10457e-05
3.12338e-05
3.141e-05
3.15842e-05
3.17502e-05
3.19201e-05
3.20702e-05
3.22284e-05
3.23538e-05
3.24951e-05
3.25878e-05
3.27058e-05
3.27621e-05
3.28487e-05
3.28717e-05
3.29167e-05
3.29168e-05
3.29114e-05
3.29023e-05
3.28482e-05
3.28382e-05
3.27605e-05
3.27462e-05
3.26998e-05
3.26712e-05
3.27372e-05
3.27018e-05
3.29774e-05
3.29878e-05
3.35773e-05
3.40655e-05
3.35335e-05
2.50355e-05
2.52286e-05
2.53022e-05
2.53304e-05
2.53776e-05
2.54392e-05
2.55023e-05
2.55656e-05
2.56314e-05
2.57017e-05
2.57769e-05
2.58573e-05
2.59426e-05
2.60329e-05
2.61281e-05
2.62284e-05
2.63337e-05
2.6444e-05
2.65592e-05
2.66792e-05
2.68039e-05
2.69335e-05
2.70681e-05
2.72078e-05
2.73529e-05
2.75036e-05
2.76602e-05
2.78228e-05
2.7992e-05
2.81674e-05
2.835e-05
2.85386e-05
2.87347e-05
2.8936e-05
2.91454e-05
2.93579e-05
2.95784e-05
2.9799e-05
3.00209e-05
3.02307e-05
3.04462e-05
3.06497e-05
3.08619e-05
3.1051e-05
3.12529e-05
3.14165e-05
3.16027e-05
3.1729e-05
3.18951e-05
3.19741e-05
3.21169e-05
3.21438e-05
3.22599e-05
3.22397e-05
3.23231e-05
3.2274e-05
3.23188e-05
3.22681e-05
3.22796e-05
3.2253e-05
3.22603e-05
3.22749e-05
3.23455e-05
3.24157e-05
3.26559e-05
3.2836e-05
3.34718e-05
3.38552e-05
3.572e-05
2.34361e-05
2.3625e-05
2.37016e-05
2.3735e-05
2.37855e-05
2.38493e-05
2.39148e-05
2.39806e-05
2.40489e-05
2.41213e-05
2.41985e-05
2.42805e-05
2.43673e-05
2.44589e-05
2.45556e-05
2.46576e-05
2.47654e-05
2.4879e-05
2.49986e-05
2.51244e-05
2.52564e-05
2.53949e-05
2.55399e-05
2.56917e-05
2.58503e-05
2.60162e-05
2.61893e-05
2.63701e-05
2.65585e-05
2.67551e-05
2.69598e-05
2.71724e-05
2.73939e-05
2.76224e-05
2.78605e-05
2.81031e-05
2.83559e-05
2.86097e-05
2.88657e-05
2.91099e-05
2.93665e-05
2.96084e-05
2.98618e-05
3.0091e-05
3.03338e-05
3.05386e-05
3.07632e-05
3.09302e-05
3.11319e-05
3.12473e-05
3.14267e-05
3.14784e-05
3.16414e-05
3.16246e-05
3.17779e-05
3.17036e-05
3.18483e-05
3.17441e-05
3.18878e-05
3.17843e-05
3.19452e-05
3.18778e-05
3.21003e-05
3.21126e-05
3.24992e-05
3.27145e-05
3.35323e-05
3.46293e-05
3.69404e-05
2.19489e-05
2.21331e-05
2.2212e-05
2.22503e-05
2.2304e-05
2.23701e-05
2.24377e-05
2.25057e-05
2.25761e-05
2.26505e-05
2.27295e-05
2.28131e-05
2.29014e-05
2.29944e-05
2.30924e-05
2.31958e-05
2.33049e-05
2.34202e-05
2.35418e-05
2.36703e-05
2.38058e-05
2.39489e-05
2.40995e-05
2.42585e-05
2.44254e-05
2.46015e-05
2.47861e-05
2.49806e-05
2.51839e-05
2.53979e-05
2.5621e-05
2.58552e-05
2.60989e-05
2.63531e-05
2.66174e-05
2.689e-05
2.71733e-05
2.74601e-05
2.77501e-05
2.80324e-05
2.83295e-05
2.8613e-05
2.89087e-05
2.91811e-05
2.94657e-05
2.97159e-05
2.99773e-05
3.01941e-05
3.04222e-05
3.05951e-05
3.07855e-05
3.0907e-05
3.10627e-05
3.1131e-05
3.1259e-05
3.12862e-05
3.13884e-05
3.14085e-05
3.14794e-05
3.15332e-05
3.15954e-05
3.17e-05
3.18269e-05
3.20277e-05
3.24126e-05
3.29133e-05
3.41708e-05
3.66873e-05
3.78893e-05
2.05938e-05
2.0771e-05
2.08502e-05
2.08908e-05
2.09461e-05
2.10133e-05
2.10825e-05
2.11519e-05
2.12237e-05
2.12994e-05
2.13794e-05
2.1464e-05
2.15532e-05
2.16471e-05
2.1746e-05
2.18504e-05
2.19606e-05
2.20771e-05
2.22003e-05
2.23307e-05
2.24685e-05
2.26146e-05
2.27688e-05
2.29326e-05
2.31051e-05
2.32885e-05
2.3481e-05
2.3686e-05
2.39004e-05
2.41286e-05
2.43664e-05
2.46191e-05
2.48816e-05
2.51592e-05
2.5447e-05
2.5748e-05
2.60601e-05
2.63783e-05
2.67011e-05
2.7023e-05
2.73588e-05
2.76846e-05
2.80245e-05
2.83418e-05
2.86736e-05
2.89707e-05
2.9279e-05
2.9544e-05
2.98143e-05
3.00377e-05
3.02618e-05
3.04378e-05
3.06163e-05
3.07456e-05
3.08844e-05
3.09793e-05
3.10836e-05
3.11688e-05
3.12458e-05
3.13474e-05
3.14365e-05
3.15764e-05
3.18076e-05
3.20969e-05
3.27982e-05
3.38464e-05
3.63216e-05
3.8491e-05
3.78407e-05
1.93347e-05
1.95052e-05
1.95839e-05
1.96264e-05
1.96825e-05
1.97497e-05
1.98193e-05
1.98894e-05
1.99624e-05
2.00389e-05
2.01204e-05
2.02063e-05
2.02974e-05
2.0393e-05
2.0494e-05
2.06004e-05
2.07127e-05
2.08315e-05
2.09569e-05
2.10899e-05
2.12305e-05
2.138e-05
2.15379e-05
2.17063e-05
2.18839e-05
2.20737e-05
2.22735e-05
2.24874e-05
2.2712e-05
2.29524e-05
2.32043e-05
2.34732e-05
2.37547e-05
2.40534e-05
2.43656e-05
2.46937e-05
2.50369e-05
2.53866e-05
2.57472e-05
2.61132e-05
2.6495e-05
2.68688e-05
2.72598e-05
2.76289e-05
2.80139e-05
2.83646e-05
2.87242e-05
2.90444e-05
2.93594e-05
2.96403e-05
2.98983e-05
3.01347e-05
3.03352e-05
3.05257e-05
3.06781e-05
3.08309e-05
3.09456e-05
3.10815e-05
3.11761e-05
3.13378e-05
3.14702e-05
3.17477e-05
3.20991e-05
3.27165e-05
3.41952e-05
3.54541e-05
3.93807e-05
3.65354e-05
3.00675e-05
1.82084e-05
1.83719e-05
1.84486e-05
1.84917e-05
1.85471e-05
1.86139e-05
1.86829e-05
1.87533e-05
1.88268e-05
1.89044e-05
1.89865e-05
1.90732e-05
1.91646e-05
1.9261e-05
1.93626e-05
1.94699e-05
1.95834e-05
1.97037e-05
1.98311e-05
1.99666e-05
2.01101e-05
2.02631e-05
2.04251e-05
2.05981e-05
2.07814e-05
2.09775e-05
2.11851e-05
2.14071e-05
2.16426e-05
2.18936e-05
2.21605e-05
2.24435e-05
2.27452e-05
2.30629e-05
2.34017e-05
2.37552e-05
2.41319e-05
2.45117e-05
2.49121e-05
2.53178e-05
2.57478e-05
2.61693e-05
2.66171e-05
2.70412e-05
2.74903e-05
2.78989e-05
2.83269e-05
2.8702e-05
2.90843e-05
2.94135e-05
2.97302e-05
3.00086e-05
3.02536e-05
3.04848e-05
3.0668e-05
3.08699e-05
3.10068e-05
3.12271e-05
3.13555e-05
3.16635e-05
3.19036e-05
3.23278e-05
3.3144e-05
3.37752e-05
3.57742e-05
3.74767e-05
3.07121e-05
2.65378e-05
1.92343e-05
1.716e-05
1.73173e-05
1.73931e-05
1.74365e-05
1.74913e-05
1.75569e-05
1.76252e-05
1.7695e-05
1.77677e-05
1.78443e-05
1.7926e-05
1.80123e-05
1.8104e-05
1.82008e-05
1.83035e-05
1.84124e-05
1.85277e-05
1.86505e-05
1.87805e-05
1.89189e-05
1.90656e-05
1.92221e-05
1.93886e-05
1.95664e-05
1.9756e-05
1.99583e-05
2.0175e-05
2.04055e-05
2.06535e-05
2.09161e-05
2.11999e-05
2.14988e-05
2.18227e-05
2.21622e-05
2.25296e-05
2.29136e-05
2.3325e-05
2.37489e-05
2.42015e-05
2.46668e-05
2.51559e-05
2.5649e-05
2.6161e-05
2.66631e-05
2.7178e-05
2.7664e-05
2.81556e-05
2.85984e-05
2.9039e-05
2.94209e-05
2.97901e-05
3.01086e-05
3.04043e-05
3.06798e-05
3.09117e-05
3.12079e-05
3.13907e-05
3.17722e-05
3.19729e-05
3.24008e-05
3.28159e-05
3.30734e-05
3.33984e-05
3.40616e-05
3.17359e-05
2.72953e-05
2.04738e-05
1.71235e-05
1.20175e-05
1.62793e-05
1.64299e-05
1.65035e-05
1.65465e-05
1.66001e-05
1.66635e-05
1.673e-05
1.67977e-05
1.68689e-05
1.69438e-05
1.70243e-05
1.71094e-05
1.72004e-05
1.72966e-05
1.73992e-05
1.75077e-05
1.76237e-05
1.77468e-05
1.78784e-05
1.80182e-05
1.81674e-05
1.83263e-05
1.8496e-05
1.86768e-05
1.88707e-05
1.90771e-05
1.92998e-05
1.95365e-05
1.97933e-05
2.00656e-05
2.03623e-05
2.06765e-05
2.10186e-05
2.13812e-05
2.17739e-05
2.21909e-05
2.26295e-05
2.30901e-05
2.35774e-05
2.40915e-05
2.46288e-05
2.51886e-05
2.5769e-05
2.63546e-05
2.69586e-05
2.75333e-05
2.81281e-05
2.86489e-05
2.91929e-05
2.96385e-05
3.01056e-05
3.04815e-05
3.08865e-05
3.1236e-05
3.15721e-05
3.19899e-05
3.21902e-05
3.25978e-05
3.273e-05
3.25982e-05
3.19739e-05
3.1605e-05
3.1412e-05
2.6573e-05
2.09678e-05
1.70497e-05
1.24852e-05
1.04349e-05
7.6164e-06
1.54298e-05
1.55744e-05
1.56449e-05
1.56858e-05
1.57372e-05
1.57978e-05
1.58621e-05
1.59278e-05
1.59975e-05
1.60712e-05
1.61508e-05
1.62352e-05
1.6326e-05
1.64221e-05
1.65252e-05
1.66341e-05
1.67509e-05
1.68749e-05
1.70082e-05
1.71497e-05
1.73015e-05
1.74633e-05
1.76369e-05
1.7822e-05
1.80216e-05
1.82344e-05
1.84647e-05
1.87105e-05
1.89772e-05
1.92625e-05
1.95725e-05
1.99051e-05
2.02664e-05
2.06554e-05
2.10773e-05
2.15347e-05
2.20279e-05
2.25627e-05
2.31315e-05
2.37382e-05
2.43722e-05
2.5038e-05
2.57224e-05
2.64212e-05
2.71324e-05
2.78173e-05
2.85254e-05
2.91428e-05
2.98008e-05
3.03327e-05
3.09086e-05
3.13431e-05
3.18458e-05
3.21752e-05
3.24152e-05
3.26523e-05
3.23847e-05
3.17656e-05
3.04036e-05
2.92047e-05
2.88915e-05
2.47996e-05
1.999e-05
1.609e-05
1.22946e-05
9.69341e-06
7.30833e-06
6.189e-06
4.89465e-06
1.48932e-05
1.50316e-05
1.51018e-05
1.51436e-05
1.51939e-05
1.52524e-05
1.53141e-05
1.53767e-05
1.54432e-05
1.5513e-05
1.55888e-05
1.5669e-05
1.57559e-05
1.58474e-05
1.59467e-05
1.60513e-05
1.61648e-05
1.62847e-05
1.6415e-05
1.65522e-05
1.67016e-05
1.68594e-05
1.70317e-05
1.72141e-05
1.74127e-05
1.76246e-05
1.78548e-05
1.81015e-05
1.83696e-05
1.86589e-05
1.89735e-05
1.93147e-05
1.96857e-05
2.00888e-05
2.05251e-05
2.09895e-05
2.14847e-05
2.20256e-05
2.26091e-05
2.32492e-05
2.39332e-05
2.46811e-05
2.54639e-05
2.63063e-05
2.71677e-05
2.80496e-05
2.89469e-05
2.97641e-05
3.05713e-05
3.12237e-05
3.17557e-05
3.20301e-05
3.22045e-05
3.19857e-05
3.11967e-05
2.99918e-05
2.81889e-05
2.66324e-05
2.60679e-05
2.18834e-05
1.77349e-05
1.41736e-05
1.10523e-05
8.71352e-06
6.67925e-06
5.50989e-06
4.6383e-06
4.29979e-06
3.65648e-06
1.4138e-05
1.42804e-05
1.43492e-05
1.43922e-05
1.44443e-05
1.4505e-05
1.45691e-05
1.46352e-05
1.4704e-05
1.47775e-05
1.48561e-05
1.49396e-05
1.50302e-05
1.51262e-05
1.5229e-05
1.53379e-05
1.54552e-05
1.55791e-05
1.57137e-05
1.58555e-05
1.60097e-05
1.61723e-05
1.63494e-05
1.65372e-05
1.67418e-05
1.69606e-05
1.71991e-05
1.74566e-05
1.77375e-05
1.80434e-05
1.8378e-05
1.87448e-05
1.91491e-05
1.9596e-05
2.00978e-05
2.06595e-05
2.12841e-05
2.19667e-05
2.27101e-05
2.35181e-05
2.43838e-05
2.5323e-05
2.6294e-05
2.73389e-05
2.83384e-05
2.93649e-05
3.02264e-05
3.09401e-05
3.12718e-05
3.13894e-05
3.09198e-05
3.02599e-05
2.90999e-05
2.74032e-05
2.56902e-05
2.46024e-05
2.16684e-05
1.79206e-05
1.4465e-05
1.16275e-05
9.27117e-06
7.48877e-06
6.05326e-06
5.17639e-06
4.29909e-06
3.9717e-06
3.54766e-06
3.84394e-06
3.57429e-06
1.42953e-05
1.44042e-05
1.44613e-05
1.44925e-05
1.45309e-05
1.4578e-05
1.46291e-05
1.46823e-05
1.47407e-05
1.48031e-05
1.48724e-05
1.49455e-05
1.50254e-05
1.51102e-05
1.52024e-05
1.5299e-05
1.54038e-05
1.55141e-05
1.56337e-05
1.57607e-05
1.58986e-05
1.60461e-05
1.62061e-05
1.6378e-05
1.65641e-05
1.67651e-05
1.69834e-05
1.72208e-05
1.74799e-05
1.77626e-05
1.8071e-05
1.84089e-05
1.87827e-05
1.91864e-05
1.96201e-05
2.01008e-05
2.06454e-05
2.12616e-05
2.19589e-05
2.27393e-05
2.35982e-05
2.45325e-05
2.54947e-05
2.64794e-05
2.73334e-05
2.80907e-05
2.84878e-05
2.85898e-05
2.81074e-05
2.75081e-05
2.64587e-05
2.54273e-05
2.31628e-05
1.96988e-05
1.65136e-05
1.37601e-05
1.1347e-05
9.39109e-06
7.78155e-06
6.53258e-06
5.56719e-06
4.65504e-06
4.39638e-06
4.16629e-06
3.58566e-06
3.7347e-06
3.58015e-06
3.89658e-06
4.41605e-06
1.34532e-05
1.36312e-05
1.37162e-05
1.37704e-05
1.38319e-05
1.39013e-05
1.3973e-05
1.40479e-05
1.41276e-05
1.42129e-05
1.43051e-05
1.44031e-05
1.45088e-05
1.46209e-05
1.47414e-05
1.48692e-05
1.50063e-05
1.51516e-05
1.53071e-05
1.54734e-05
1.56514e-05
1.58428e-05
1.60489e-05
1.62718e-05
1.65126e-05
1.6774e-05
1.70589e-05
1.73736e-05
1.77264e-05
1.81222e-05
1.85636e-05
1.905e-05
1.95849e-05
2.0186e-05
2.08311e-05
2.15185e-05
2.22194e-05
2.29455e-05
2.36565e-05
2.43682e-05
2.50499e-05
2.5698e-05
2.63208e-05
2.68436e-05
2.74553e-05
2.79468e-05
2.56475e-05
2.30021e-05
2.03893e-05
1.76811e-05
1.53375e-05
1.3057e-05
1.14752e-05
9.97597e-06
8.61356e-06
7.38871e-06
6.40178e-06
5.62008e-06
5.04336e-06
4.55832e-06
4.08783e-06
3.58389e-06
3.68811e-06
3.81874e-06
4.14957e-06
4.00907e-06
4.62973e-06
6.83077e-06
1.53758e-05
1.62618e-05
1.63114e-05
1.64005e-05
1.64094e-05
1.64422e-05
1.64936e-05
1.65639e-05
1.66267e-05
1.67157e-05
1.67888e-05
1.69001e-05
1.69906e-05
1.71256e-05
1.72232e-05
1.72773e-05
1.732e-05
1.74564e-05
1.75839e-05
1.76487e-05
1.77284e-05
1.78423e-05
1.79836e-05
1.81503e-05
1.83421e-05
1.85575e-05
1.87935e-05
1.90483e-05
1.93099e-05
1.95441e-05
1.98045e-05
2.00355e-05
2.02477e-05
2.04518e-05
2.07554e-05
2.10667e-05
2.1483e-05
2.20537e-05
2.19514e-05
2.07912e-05
1.94983e-05
1.82529e-05
1.68659e-05
1.56783e-05
1.43835e-05
1.31856e-05
1.20596e-05
1.13562e-05
1.02039e-05
9.21499e-06
8.28405e-06
7.9015e-06
7.56975e-06
7.32611e-06
7.30978e-06
6.57476e-06
5.84261e-06
5.18858e-06
4.64789e-06
4.20898e-06
3.77106e-06
3.71698e-06
3.75227e-06
3.79934e-06
4.43311e-06
6.7567e-06
6.28823e-06
8.23606e-06
1.088e-05
1.31441e-05
9.71075e-06
9.59676e-06
9.55706e-06
9.44571e-06
9.36093e-06
9.31941e-06
9.18868e-06
9.14535e-06
9.01147e-06
8.97102e-06
8.8606e-06
8.73824e-06
8.70145e-06
8.57567e-06
8.5368e-06
8.42486e-06
8.3088e-06
8.23482e-06
8.19761e-06
8.08646e-06
7.95217e-06
7.91815e-06
7.79351e-06
7.70456e-06
7.66636e-06
7.5181e-06
7.47758e-06
7.33074e-06
7.2439e-06
7.16414e-06
7.07438e-06
6.99725e-06
6.9197e-06
6.87469e-06
6.82614e-06
6.83374e-06
6.82407e-06
6.87085e-06
6.91298e-06
7.00402e-06
7.07333e-06
7.16424e-06
7.20872e-06
7.24542e-06
7.23769e-06
7.21329e-06
7.09113e-06
6.98047e-06
6.68498e-06
6.61692e-06
6.29785e-06
5.93048e-06
5.41244e-06
4.80291e-06
4.24438e-06
3.75712e-06
3.33943e-06
3.05858e-06
2.83422e-06
2.67872e-06
1.30756e-06
1.20514e-06
1.80551e-06
2.34811e-06
3.29546e-06
4.10635e-06
4.76485e-06
5.68599e-06
6.46165e-06
4.45296e-06
4.54437e-06
4.60088e-06
4.66019e-06
4.72213e-06
4.78742e-06
4.85512e-06
4.92562e-06
4.99868e-06
5.0736e-06
5.15167e-06
5.23027e-06
5.31296e-06
5.39516e-06
5.48186e-06
5.56744e-06
5.65784e-06
5.74644e-06
5.84065e-06
5.93237e-06
6.02996e-06
6.1249e-06
6.22621e-06
6.32457e-06
6.42909e-06
6.53241e-06
6.63908e-06
6.74828e-06
6.8527e-06
6.9612e-06
7.05898e-06
7.16328e-06
7.25973e-06
7.35569e-06
7.41976e-06
7.58449e-06
7.61974e-06
7.73217e-06
7.82342e-06
7.90311e-06
7.9738e-06
8.01644e-06
7.96549e-06
7.88812e-06
7.77753e-06
7.60678e-06
7.09619e-06
6.48391e-06
5.74536e-06
4.86553e-06
3.79496e-06
2.58976e-06
1.39431e-06
4.99898e-07
2.33873e-07
2.59894e-07
3.45307e-07
3.75667e-07
3.71717e-07
3.39283e-07
2.34012e-07
1.72596e-07
1.47297e-07
1.43087e-07
1.43606e-07
1.34361e-07
1.25915e-07
1.2989e-07
1.3433e-07
7.90471e-05
7.82083e-05
7.6214e-05
7.63393e-05
7.63386e-05
7.67662e-05
7.71882e-05
7.8306e-05
7.77311e-05
7.57262e-05
7.55329e-05
7.49625e-05
7.31002e-05
7.27219e-05
7.37609e-05
7.56871e-05
7.35506e-05
7.21993e-05
7.24723e-05
7.27828e-05
7.01128e-05
6.99429e-05
7.0546e-05
6.90383e-05
6.95763e-05
6.9332e-05
6.79473e-05
6.75937e-05
6.76271e-05
6.80235e-05
6.64857e-05
6.61971e-05
6.59419e-05
6.60775e-05
6.50777e-05
6.52168e-05
6.47741e-05
6.46705e-05
6.48605e-05
6.54651e-05
6.53436e-05
6.46871e-05
6.44536e-05
6.38678e-05
6.32509e-05
6.31739e-05
6.41593e-05
6.2947e-05
6.29856e-05
6.45613e-05
6.51997e-05
6.53835e-05
6.5438e-05
6.39256e-05
6.17879e-05
6.1925e-05
6.14795e-05
6.1707e-05
6.13537e-05
7.32169e-05
7.25549e-05
7.26956e-05
7.28163e-05
7.31505e-05
7.33566e-05
7.31497e-05
7.25556e-05
7.15314e-05
7.07926e-05
7.04391e-05
6.97597e-05
6.9312e-05
6.96983e-05
7.03792e-05
6.98863e-05
6.76843e-05
6.74145e-05
6.79341e-05
6.69947e-05
6.56888e-05
6.51499e-05
6.53918e-05
6.43585e-05
6.4806e-05
6.42257e-05
6.36061e-05
6.2808e-05
6.32116e-05
6.29369e-05
6.18581e-05
6.16779e-05
6.1575e-05
6.13254e-05
6.09274e-05
6.07848e-05
6.06079e-05
6.01504e-05
6.00928e-05
6.03251e-05
6.03331e-05
6.03701e-05
6.01072e-05
5.95443e-05
5.95017e-05
5.88071e-05
5.91779e-05
5.88019e-05
5.84933e-05
5.88128e-05
5.93074e-05
5.98747e-05
6.02127e-05
6.02533e-05
5.92297e-05
5.88159e-05
5.80554e-05
5.7653e-05
5.72472e-05
6.95407e-05
6.93322e-05
6.96055e-05
6.94799e-05
6.92846e-05
6.8792e-05
6.80214e-05
6.71798e-05
6.65196e-05
6.61282e-05
6.57084e-05
6.53734e-05
6.53969e-05
6.54468e-05
6.52741e-05
6.39764e-05
6.30928e-05
6.31315e-05
6.31237e-05
6.18525e-05
6.08545e-05
6.07436e-05
6.05349e-05
5.9955e-05
6.01524e-05
5.94514e-05
5.91245e-05
5.84576e-05
5.86817e-05
5.82836e-05
5.75353e-05
5.74373e-05
5.72765e-05
5.68781e-05
5.66972e-05
5.65694e-05
5.64055e-05
5.60627e-05
5.59205e-05
5.59445e-05
5.60223e-05
5.61613e-05
5.60155e-05
5.56574e-05
5.5586e-05
5.51565e-05
5.50405e-05
5.48669e-05
5.46392e-05
5.45172e-05
5.45342e-05
5.47379e-05
5.50153e-05
5.5328e-05
5.53814e-05
5.51998e-05
5.4789e-05
5.44431e-05
5.37824e-05
6.6447e-05
6.60087e-05
6.5856e-05
6.53487e-05
6.47467e-05
6.40512e-05
6.33748e-05
6.28303e-05
6.24426e-05
6.21252e-05
6.18266e-05
6.16578e-05
6.15293e-05
6.11271e-05
6.03845e-05
5.94581e-05
5.91819e-05
5.91163e-05
5.85646e-05
5.74146e-05
5.67436e-05
5.66783e-05
5.6312e-05
5.59775e-05
5.59795e-05
5.52976e-05
5.50107e-05
5.45091e-05
5.4549e-05
5.41663e-05
5.36221e-05
5.35384e-05
5.33103e-05
5.29288e-05
5.27541e-05
5.26615e-05
5.25141e-05
5.22406e-05
5.2063e-05
5.19953e-05
5.20305e-05
5.21684e-05
5.21415e-05
5.19395e-05
5.18085e-05
5.15547e-05
5.13112e-05
5.1139e-05
5.10014e-05
5.08399e-05
5.07175e-05
5.06579e-05
5.07006e-05
5.0827e-05
5.09612e-05
5.10659e-05
5.10381e-05
5.10277e-05
5.05494e-05
6.25349e-05
6.18493e-05
6.14952e-05
6.091e-05
6.03491e-05
5.98393e-05
5.94179e-05
5.90849e-05
5.88006e-05
5.85318e-05
5.82833e-05
5.80185e-05
5.75967e-05
5.69434e-05
5.62117e-05
5.56902e-05
5.54842e-05
5.51235e-05
5.43375e-05
5.34686e-05
5.3085e-05
5.2914e-05
5.25143e-05
5.22857e-05
5.21449e-05
5.15306e-05
5.12488e-05
5.08346e-05
5.0773e-05
5.04046e-05
4.99731e-05
4.98713e-05
4.96395e-05
4.92998e-05
4.91046e-05
4.90086e-05
4.88761e-05
4.86479e-05
4.84499e-05
4.83272e-05
4.82927e-05
4.8394e-05
4.84726e-05
4.83788e-05
4.82429e-05
4.80923e-05
4.78888e-05
4.76871e-05
4.75398e-05
4.74358e-05
4.72907e-05
4.71703e-05
4.70848e-05
4.70581e-05
4.70799e-05
4.7119e-05
4.71544e-05
4.73155e-05
4.70767e-05
5.83341e-05
5.76639e-05
5.73671e-05
5.69143e-05
5.65257e-05
5.61875e-05
5.58884e-05
5.56072e-05
5.53209e-05
5.50165e-05
5.46684e-05
5.42212e-05
5.36452e-05
5.30204e-05
5.24993e-05
5.21491e-05
5.1808e-05
5.12248e-05
5.04627e-05
4.98657e-05
4.96035e-05
4.93393e-05
4.89642e-05
4.87681e-05
4.85256e-05
4.79857e-05
4.77127e-05
4.73521e-05
4.72323e-05
4.68814e-05
4.65147e-05
4.63963e-05
4.61879e-05
4.58898e-05
4.56852e-05
4.55753e-05
4.54605e-05
4.52905e-05
4.50939e-05
4.49432e-05
4.48599e-05
4.48773e-05
4.49451e-05
4.49496e-05
4.48777e-05
4.47733e-05
4.46327e-05
4.45128e-05
4.43722e-05
4.42883e-05
4.41784e-05
4.40844e-05
4.39731e-05
4.38653e-05
4.37896e-05
4.37501e-05
4.37257e-05
4.38326e-05
4.36369e-05
5.45615e-05
5.40104e-05
5.38124e-05
5.34704e-05
5.31677e-05
5.28723e-05
5.25692e-05
5.22458e-05
5.18896e-05
5.14879e-05
5.10237e-05
5.04964e-05
4.99496e-05
4.94611e-05
4.90675e-05
4.86951e-05
4.82032e-05
4.75601e-05
4.69341e-05
4.6534e-05
4.62829e-05
4.59703e-05
4.56404e-05
4.54404e-05
4.51381e-05
4.46643e-05
4.43973e-05
4.40797e-05
4.39275e-05
4.35994e-05
4.32768e-05
4.31471e-05
4.29643e-05
4.27026e-05
4.24986e-05
4.23751e-05
4.2269e-05
4.21232e-05
4.19823e-05
4.18341e-05
4.17201e-05
4.16802e-05
4.17017e-05
4.17382e-05
4.17333e-05
4.16729e-05
4.15616e-05
4.14573e-05
4.13517e-05
4.1271e-05
4.11887e-05
4.114e-05
4.10632e-05
4.0981e-05
4.08911e-05
4.08316e-05
4.07399e-05
4.07887e-05
4.05562e-05
5.12616e-05
5.07844e-05
5.06169e-05
5.02962e-05
4.99859e-05
4.9656e-05
4.92991e-05
4.89105e-05
4.84857e-05
4.80248e-05
4.75369e-05
4.70486e-05
4.6595e-05
4.61908e-05
4.57979e-05
4.53404e-05
4.47841e-05
4.42048e-05
4.37329e-05
4.34159e-05
4.31395e-05
4.28145e-05
4.25231e-05
4.23023e-05
4.19737e-05
4.15563e-05
4.12933e-05
4.10116e-05
4.08423e-05
4.05376e-05
4.02496e-05
4.0113e-05
3.99513e-05
3.97305e-05