/*--------------------------------*- C++ -*----------------------------------*\
| =========                 |                                                 |
| \\      /  F ield         | OpenFOAM: The Open Source CFD Toolbox           |
|  \\    /   O peration     | Version:  2312                                  |
|   \\  /    A nd           | Website:  www.openfoam.com                      |
|    \\/     M anipulation  |                                                 |
\*---------------------------------------------------------------------------*/
FoamFile
{
    version     2.0;
    format      ascii;
    arch        "LSB;label=32;scalar=64";
    class       volScalarField;
    location    "1500";
    object      omega;
}
// * * * * * * * * * * * * * * * * * * * * * * * * * * * * * * * * * * * * * //

dimensions      [0 0 -1 0 0 0 0];

internalField   nonuniform List<scalar> 
76025
(
0.0282102
0.0281726
0.028166
0.028145
0.0281367
0.0281821
0.0281797
0.0281647
0.0281735
0.0281345
0.028083
0.0280975
0.0280915
0.0280388
0.0280598
0.0280068
0.0279896
0.0279696
0.0279369
0.0279538
0.0279209
0.0279532
0.0279337
0.0279299
0.0279762
0.0280052
0.0280964
0.0281417
0.0282476
0.0283312
0.0284713
0.0285604
0.0287577
0.0289158
0.0291138
0.0293278
0.0295441
0.0298532
0.0301817
0.030489
0.0308804
0.031222
0.0317385
0.0321509
0.0326337
0.0330272
0.0335339
0.0339477
0.0343768
0.034719
0.0351106
0.035353
0.0355808
0.0357257
0.0359737
0.0361521
0.0365098
0.0368216
0.0373556
0.0377208
0.0384351
0.0389908
0.0401798
0.0409477
0.0427078
0.0438259
0.0457714
0.048126
0.0500374
0.0285147
0.028541
0.0285492
0.0285169
0.0284323
0.0284687
0.0284291
0.0284168
0.0284132
0.0284535
0.0284581
0.0284782
0.028487
0.0284692
0.0284448
0.028508
0.0285274
0.0285014
0.0285566
0.0285368
0.0285139
0.0285073
0.0285153
0.0285282
0.0285755
0.0286221
0.0287244
0.0288265
0.0289621
0.0290948
0.0292557
0.0294145
0.029595
0.0297869
0.0299922
0.0302171
0.0304571
0.0307121
0.03098
0.0312577
0.0315498
0.0318517
0.0321586
0.0324534
0.032762
0.0330402
0.0333564
0.0336078
0.0339353
0.0341686
0.0345105
0.0347251
0.0350822
0.0352839
0.0356775
0.0359264
0.0364323
0.0367538
0.0374455
0.0379108
0.0390246
0.039738
0.0413644
0.0423571
0.0445619
0.0459049
0.0490134
0.0507046
0.0553605
0.0288534
0.0288294
0.0288275
0.0288734
0.0288857
0.0289104
0.0289183
0.0289638
0.0289736
0.0289893
0.0289565
0.0288933
0.0289318
0.0288946
0.0288874
0.028893
0.02891
0.0289308
0.02898
0.0290152
0.0290646
0.0291182
0.0291685
0.0292383
0.0293525
0.0295155
0.0295868
0.0295731
0.0296292
0.0297269
0.0298566
0.030007
0.030173
0.0303544
0.0305489
0.0307567
0.0309778
0.0312094
0.0314497
0.0316976
0.0319534
0.0322142
0.032483
0.0327461
0.0330277
0.0332845
0.0335846
0.0338209
0.0341541
0.0343695
0.0347536
0.0349642
0.035411
0.0356658
0.0362267
0.0365662
0.037313
0.0377803
0.0388039
0.0394274
0.0407963
0.0415978
0.0433592
0.044405
0.04671
0.0481007
0.0511572
0.0529637
0.0576788
0.0291923
0.0292589
0.0292696
0.0292404
0.0292467
0.0292765
0.0293089
0.0293531
0.0293873
0.0294208
0.0294502
0.0294686
0.029487
0.0295234
0.0295633
0.0295956
0.0296791
0.029718
0.0297535
0.0297702
0.0297328
0.0297398
0.0297741
0.0298237
0.0298895
0.029963
0.0300356
0.0301095
0.0301998
0.0303089
0.0304364
0.03058
0.0307385
0.0309103
0.0310953
0.0312915
0.0315005
0.0317185
0.0319481
0.0321823
0.0324305
0.0326776
0.0329465
0.0332002
0.033494
0.0337456
0.034076
0.0343185
0.0347044
0.0349406
0.0354033
0.0356574
0.036212
0.0365215
0.0372111
0.0376058
0.0384852
0.038998
0.0401343
0.0408038
0.0422783
0.0431548
0.0450912
0.0462511
0.0488121
0.0503512
0.0537692
0.0557654
0.0611155
0.0297354
0.0297168
0.0297808
0.0297991
0.0297873
0.0298583
0.0298804
0.0298498
0.0298598
0.0298924
0.0299319
0.0299731
0.0300039
0.0300419
0.0300851
0.0301206
0.0301709
0.0302136
0.0302565
0.030299
0.0303419
0.03039
0.030445
0.0305051
0.0305723
0.0306457
0.0307265
0.0308161
0.0309174
0.0310314
0.0311593
0.0312998
0.0314538
0.0316192
0.0317983
0.0319869
0.0321901
0.0324001
0.0326258
0.0328536
0.0331022
0.0333457
0.0336219
0.0338767
0.0341884
0.0344478
0.0348107
0.0350699
0.0355073
0.0357699
0.0363045
0.0365977
0.037242
0.0376041
0.0384033
0.0388562
0.0398737
0.0404485
0.0417583
0.0425067
0.0441872
0.0451639
0.0473333
0.0486091
0.0514276
0.0530955
0.0567969
0.0589269
0.0646524
0.0303359
0.0303941
0.0304142
0.0304046
0.0304969
0.0305356
0.030527
0.0306191
0.0305642
0.0305822
0.0305652
0.0305903
0.0306258
0.030663
0.0307018
0.0307411
0.0307873
0.030839
0.0308975
0.0309614
0.0310308
0.0311048
0.0311836
0.0312663
0.0313539
0.0314464
0.0315454
0.0316512
0.0317661
0.0318898
0.0320244
0.0321684
0.0323246
0.0324898
0.0326686
0.0328554
0.0330582
0.0332664
0.0334938
0.0337214
0.0339768
0.034223
0.0345144
0.034776
0.0351152
0.0353861
0.0357932
0.0360697
0.0365702
0.0368592
0.0374734
0.0378095
0.038549
0.038962
0.0398795
0.0403952
0.0415498
0.0421986
0.0436657
0.0444956
0.0463647
0.0474367
0.0498287
0.0512208
0.054304
0.056114
0.0601428
0.0624354
0.0687077
0.0311985
0.0311146
0.0311305
0.0311134
0.0311257
0.031143
0.0311828
0.0312388
0.0312409
0.0313573
0.0313782
0.0313478
0.0313206
0.0313501
0.0314113
0.031489
0.0315709
0.0316504
0.03173
0.0318116
0.0318973
0.0319872
0.0320821
0.0321814
0.0322861
0.0323954
0.0325109
0.0326321
0.0327608
0.0328964
0.0330412
0.0331936
0.033357
0.0335282
0.0337127
0.0339046
0.0341134
0.0343274
0.0345628
0.0347988
0.0350666
0.0353254
0.0356366
0.0359158
0.0362856
0.0365792
0.0370318
0.0373359
0.0379006
0.0382227
0.0389202
0.0392975
0.040139
0.0406031
0.0416413
0.0422182
0.0435137
0.0442342
0.0458678
0.0467892
0.0488529
0.0500367
0.0526675
0.0541934
0.0575693
0.0595414
0.0639364
0.0664168
0.0733558
0.0321616
0.0322669
0.0322567
0.0322859
0.0322335
0.0323329
0.0323268
0.0322999
0.0323152
0.0323436
0.0324422
0.0325519
0.0325972
0.0326643
0.0327039
0.032636
0.0325958
0.0326293
0.0326982
0.032784
0.0328801
0.0329833
0.033093
0.0332083
0.0333297
0.0334565
0.0335897
0.0337286
0.0338746
0.0340268
0.0341873
0.0343547
0.0345323
0.0347173
0.0349154
0.0351207
0.0353437
0.0355724
0.0358236
0.0360772
0.0363647
0.0366455
0.0369826
0.0372894
0.0376938
0.0380206
0.0385212
0.0388625
0.0394933
0.039855
0.0406389
0.0410623
0.042006
0.0425234
0.0436866
0.0443266
0.0457685
0.0465678
0.0483777
0.0493947
0.0516743
0.0529758
0.0558729
0.0575453
0.0612511
0.0634085
0.0682249
0.0709383
0.0784983
0.0328832
0.0329178
0.0329508
0.0329731
0.0330176
0.0330505
0.0330983
0.0331275
0.0331679
0.0332097
0.033248
0.0333153
0.0333659
0.0334328
0.0335051
0.0335781
0.0336602
0.0337553
0.0338609
0.0339736
0.0340919
0.0342145
0.0343416
0.034473
0.0346094
0.0347507
0.0348979
0.0350506
0.0352101
0.035376
0.03555
0.0357313
0.0359227
0.0361221
0.0363352
0.0365561
0.0367964
0.0370426
0.0373142
0.037589
0.0379011
0.038209
0.0385755
0.038917
0.0393568
0.0397265
0.040272
0.0406624
0.0413542
0.0417651
0.0426353
0.0431039
0.0441578
0.0447344
0.0460235
0.0467358
0.0483305
0.0492232
0.0512199
0.0523488
0.0548667
0.0563051
0.059505
0.0613476
0.065441
0.0678163
0.0731313
0.0761177
0.0841205
0.0341548
0.0343167
0.0343571
0.0344262
0.0342889
0.0344173
0.034307
0.0342561
0.0342611
0.0342898
0.034329
0.0343831
0.0344464
0.0345227
0.0346125
0.0347146
0.0348288
0.0349537
0.0350876
0.0352284
0.035375
0.0355258
0.0356808
0.0358391
0.0360012
0.036167
0.0363369
0.0365118
0.0366917
0.0368781
0.0370712
0.0372725
0.037483
0.0377027
0.0379365
0.0381786
0.0384428
0.0387119
0.0390115
0.039312
0.0396572
0.0399959
0.0404003
0.0407802
0.0412624
0.0416802
0.042275
0.042722
0.0434766
0.0439462
0.0449068
0.0454214
0.0466049
0.0472462
0.048673
0.04947
0.0512354
0.0522349
0.054443
0.055704
0.0584971
0.0601002
0.0636539
0.0657022
0.0702579
0.0728892
0.0787798
0.0820607
0.0909152
0.0354424
0.0353296
0.0354336
0.0353669
0.0353436
0.0353789
0.0354532
0.0355147
0.0355925
0.0356704
0.0357444
0.0358181
0.0358949
0.0359777
0.0360692
0.0361706
0.0362829
0.0364061
0.03654
0.0366838
0.0368367
0.0369978
0.0371663
0.0373416
0.0375228
0.0377102
0.0379028
0.0381021
0.0383061
0.0385188
0.0387364
0.0389653
0.0392009
0.0394496
0.0397098
0.0399826
0.040276
0.0405776
0.0409108
0.0412463
0.0416311
0.0420094
0.042459
0.0428857
0.0434185
0.0438932
0.0445458
0.0450594
0.0458859
0.0464267
0.0474854
0.0480694
0.049387
0.0501
0.0516982
0.0525696
0.0545636
0.0556554
0.0581482
0.0595381
0.0626852
0.0644689
0.0684633
0.0707508
0.0758351
0.0787694
0.0852946
0.0889514
0.0991115
0.037233
0.0372685
0.0372904
0.037473
0.0375135
0.0375751
0.0373708
0.0375318
0.0374107
0.0373873
0.0374357
0.0375133
0.0376044
0.0377031
0.0378084
0.0379198
0.0380383
0.0381641
0.0382983
0.0384408
0.0385924
0.0387529
0.0389225
0.0391013
0.0392887
0.0394859
0.0396905
0.0399069
0.0401286
0.0403657
0.0406057
0.0408663
0.0411275
0.0414151
0.0417035
0.0420216
0.042346
0.0426976
0.0430664
0.0434556
0.0438826
0.0443185
0.0448169
0.045307
0.0458952
0.0464427
0.0471584
0.0477547
0.0486594
0.0492865
0.0504539
0.0511175
0.0525918
0.0533805
0.0551734
0.0561553
0.0583875
0.0596261
0.0624212
0.0639978
0.0675448
0.069559
0.0740545
0.0766364
0.0823129
0.0857098
0.0928336
0.0972889
0.108313
0.0390573
0.0389369
0.0389082
0.0389593
0.0390154
0.0391004
0.0391519
0.0392298
0.039301
0.0393815
0.0394745
0.0395767
0.0396863
0.0398015
0.0399225
0.0400485
0.0401808
0.0403188
0.040464
0.0406161
0.0407763
0.0409446
0.0411217
0.0413086
0.0415041
0.0417117
0.0419266
0.0421578
0.0423926
0.0426509
0.0429062
0.0431965
0.043474
0.0438015
0.0441062
0.0444754
0.0448164
0.0452289
0.0456171
0.0460757
0.0465283
0.0470405
0.0475727
0.0481471
0.0487758
0.0494227
0.0501821
0.0508988
0.0518533
0.0526181
0.0538624
0.0546598
0.0562821
0.0571721
0.0592003
0.0603209
0.0628354
0.064251
0.0674241
0.0692241
0.0732517
0.0755392
0.08064
0.0835755
0.0899643
0.0940456
0.101572
0.108636
0.116945
0.0415338
0.0417574
0.0415021
0.0416841
0.0415011
0.0414375
0.0414726
0.0415515
0.0416499
0.0417584
0.0418737
0.0419938
0.0421185
0.0422472
0.0423809
0.0425193
0.0426636
0.0428138
0.0429709
0.0431352
0.0433074
0.0434883
0.043678
0.0438783
0.0440878
0.0443106
0.0445417
0.0447915
0.0450451
0.0453278
0.0456039
0.0459273
0.0462262
0.0465988
0.0469234
0.0473524
0.0477106
0.0481974
0.0486022
0.0491481
0.0496208
0.0502299
0.0507892
0.051471
0.0521326
0.0529082
0.0536955
0.0545832
0.0555478
0.056544
0.0577862
0.0588677
0.0605276
0.0616879
0.0639142
0.0652065
0.0681117
0.0697189
0.073376
0.0754217
0.0800351
0.0826432
0.0884816
0.0918224
0.0992437
0.103693
0.113702
0.119767
0.1403
0.044254
0.0441077
0.0440223
0.0440762
0.0441505
0.0442407
0.0443434
0.0444581
0.0445821
0.0447125
0.0448489
0.0449895
0.0451338
0.0452814
0.0454326
0.0455877
0.0457476
0.045913
0.0460846
0.0462633
0.04645
0.046645
0.0468503
0.0470644
0.0472919
0.0475281
0.0477811
0.0480443
0.048325
0.0486223
0.0489311
0.0492726
0.0496086
0.0500069
0.0503706
0.0508373
0.0512337
0.0517738
0.052215
0.0528329
0.0533424
0.0540405
0.0546427
0.0554286
0.0561451
0.0570449
0.0578948
0.0589489
0.0599637
0.0612072
0.0624639
0.0639093
0.0655446
0.067198
0.0693948
0.0712611
0.0742867
0.0763086
0.0804889
0.0828307
0.0881166
0.0911582
0.0978572
0.101786
0.110311
0.116287
0.127326
0.137787
0.154025
0.0481124
0.0476787
0.0478215
0.0475602
0.0474845
0.0475405
0.0476999
0.0478579
0.0480333
0.0482102
0.0483752
0.048538
0.0486985
0.0488628
0.0490313
0.0492055
0.0493864
0.0495742
0.04977
0.0499725
0.0501859
0.0504043
0.0506398
0.0508753
0.0511385
0.0513926
0.0516896
0.0519645
0.0523008
0.052602
0.0529804
0.0533181
0.0537387
0.0541277
0.0545894
0.0550474
0.0555491
0.056091
0.0566373
0.0572803
0.0578866
0.0586423
0.0593312
0.0602097
0.0610125
0.062036
0.0629858
0.0641967
0.0653291
0.0667849
0.0681667
0.0699116
0.0716812
0.0737315
0.0760965
0.0784696
0.0816908
0.0843657
0.0888741
0.0917072
0.0979478
0.101434
0.109249
0.114081
0.124434
0.132886
0.146345
0.163028
0.185046
0.0525074
0.0524566
0.052343
0.0527046
0.0527542
0.0528352
0.0523817
0.0526477
0.0524035
0.0523143
0.0524444
0.0526097
0.0528565
0.0530788
0.053325
0.0535683
0.0538041
0.0540339
0.0542677
0.0545005
0.054749
0.0549923
0.0552664
0.055522
0.0558319
0.0560991
0.0564554
0.0567339
0.0571461
0.057439
0.0579137
0.0582298
0.0587695
0.0591247
0.0597284
0.0601443
0.0608057
0.0613084
0.0620227
0.0626473
0.063414
0.064194
0.0650203
0.0659851
0.0668988
0.0680784
0.069125
0.0705601
0.0717923
0.0735487
0.0750363
0.0771838
0.0790716
0.0816234
0.084197
0.0870869
0.0907449
0.0939297
0.0990765
0.102636
0.109775
0.114025
0.123849
0.129961
0.144524
0.154305
0.178817
0.194233
0.244862
0.0579779
0.0581705
0.0582459
0.0579839
0.0579054
0.0580616
0.0582171
0.0585164
0.05865
0.0593019
0.0594903
0.0597441
0.0592179
0.0597566
0.0593658
0.0592245
0.0593126
0.0594951
0.0597338
0.059987
0.0602771
0.0605546
0.060884
0.0611741
0.0615482
0.0618468
0.0622744
0.0625821
0.0630704
0.0633937
0.0639466
0.0642987
0.0649169
0.0653157
0.0660007
0.0664653
0.0672172
0.0677702
0.0685942
0.0692676
0.0701697
0.0709994
0.0719905
0.0730152
0.0741262
0.0753866
0.0766693
0.0782161
0.0797321
0.0816503
0.0834631
0.0858846
0.0880806
0.0911619
0.0939037
0.0977676
0.101395
0.106048
0.111202
0.116603
0.124347
0.130752
0.143455
0.152022
0.173783
0.189164
0.223179
0.255064
0.304009
0.0645422
0.0647772
0.0654406
0.0655971
0.0656257
0.0655343
0.0661765
0.0658812
0.0652699
0.0648437
0.0647896
0.0647133
0.064768
0.0649141
0.0651244
0.0653738
0.0656607
0.0659781
0.0663164
0.0666332
0.0669817
0.0672975
0.0676781
0.0680057
0.0684318
0.068779
0.0692534
0.0696328
0.0701504
0.0705831
0.0711344
0.0716455
0.0722246
0.0728345
0.0734483
0.074164
0.0748334
0.0756553
0.0764187
0.0773484
0.0782499
0.0792899
0.0803842
0.081541
0.0829041
0.0841951
0.0859128
0.0873904
0.0895379
0.0913196
0.0939697
0.0962127
0.0995123
0.102355
0.106558
0.110178
0.115626
0.120333
0.127659
0.133972
0.144905
0.1542
0.172351
0.187302
0.220766
0.243759
0.301894
0.342634
0.441774
0.0736479
0.07381
0.0733609
0.0740612
0.0741898
0.0742823
0.0734977
0.073135
0.072919
0.073059
0.0732162
0.0736698
0.0738907
0.0747546
0.0750711
0.0753608
0.0755967
0.075074
0.0749767
0.0751304
0.0754914
0.0758626
0.0763204
0.0767213
0.0772133
0.0776479
0.0781645
0.0786617
0.0791864
0.0797805
0.0802975
0.0810159
0.0815274
0.0823776
0.0829132
0.0838788
0.0844896
0.085553
0.0862986
0.087455
0.0883924
0.0896422
0.0908546
0.0921809
0.0938127
0.0951722
0.0974156
0.0987915
0.101805
0.103356
0.107148
0.109169
0.113793
0.116698
0.12215
0.126643
0.13322
0.140088
0.149169
0.159932
0.175071
0.192308
0.220014
0.248026
0.296745
0.339481
0.427843
0.491366
0.624354
0.0826985
0.0830877
0.0834173
0.0837611
0.0841391
0.0844113
0.084737
0.085137
0.0854042
0.0858738
0.0860845
0.0868986
0.0871752
0.0873437
0.087311
0.0883013
0.0885292
0.0887935
0.0874957
0.088288
0.0874256
0.0870008
0.0871489
0.0874403
0.087919
0.0883937
0.0889562
0.089542
0.0901315
0.0908329
0.0914418
0.0922591
0.0929181
0.0938258
0.0945955
0.095554
0.0965044
0.0975025
0.0986762
0.0997538
0.101159
0.102386
0.104052
0.105478
0.107516
0.109145
0.11175
0.113565
0.116997
0.119027
0.123543
0.126038
0.131788
0.135305
0.142621
0.148394
0.157992
0.16858
0.183261
0.202296
0.227821
0.25975
0.304678
0.354473
0.429308
0.503894
0.61957
0.698483
0.825469
0.0969577
0.0962279
0.0958577
0.0961899
0.0963892
0.0972088
0.0976239
0.0986192
0.0990834
0.100187
0.100638
0.101912
0.102383
0.102433
0.102236
0.103519
0.103786
0.104114
0.102208
0.1031
0.101862
0.101174
0.101358
0.101743
0.102383
0.103004
0.103732
0.104415
0.105176
0.10593
0.106743
0.107578
0.108478
0.109387
0.110416
0.111394
0.112592
0.113667
0.115051
0.11629
0.117869
0.119354
0.121187
0.122974
0.125194
0.127335
0.130114
0.132715
0.136285
0.139521
0.144283
0.148529
0.155184
0.161403
0.171438
0.182105
0.198691
0.218536
0.246533
0.282019
0.327787
0.385308
0.458665
0.539898
0.649072
0.742924
0.868868
0.922485
1.04103
0.115303
0.115663
0.116024
0.115236
0.116002
0.11554
0.115308
0.115903
0.116108
0.117014
0.117418
0.118561
0.119141
0.120576
0.121171
0.122871
0.123523
0.123792
0.123648
0.125398
0.125774
0.126191
0.123576
0.124842
0.123024
0.122033
0.122058
0.122543
0.12328
0.124129
0.125077
0.126097
0.127153
0.128335
0.12948
0.130851
0.13211
0.133704
0.135116
0.136981
0.138582
0.140806
0.142643
0.145366
0.14751
0.150944
0.153573
0.15797
0.161651
0.167301
0.173313
0.181194
0.191534
0.204772
0.223057
0.247748
0.27953
0.32189
0.374215
0.440095
0.519958
0.612958
0.720064
0.829811
0.948286
1.03962
1.1394
1.16319
1.34914
0.138319
0.138711
0.139169
0.139548
0.140019
0.140683
0.141234
0.141658
0.143233
0.143839
0.145638
0.145606
0.14402
0.14555
0.146273
0.144178
0.146013
0.144461
0.14342
0.143499
0.143679
0.144304
0.144753
0.145548
0.146193
0.147098
0.147914
0.148957
0.149927
0.151074
0.152159
0.15343
0.154586
0.156049
0.157241
0.158965
0.160198
0.162247
0.16356
0.166053
0.167481
0.170634
0.172256
0.176376
0.178476
0.183993
0.187259
0.195101
0.200926
0.212668
0.224421
0.243091
0.266503
0.298405
0.341181
0.392981
0.460772
0.538289
0.634277
0.73917
0.858397
0.977155
1.10299
1.21254
1.31999
1.41141
1.50018
1.59446
1.96674
0.168797
0.169586
0.170175
0.17076
0.171333
0.171795
0.172852
0.174435
0.173459
0.174906
0.173705
0.175594
0.174345
0.172532
0.171286
0.170749
0.170584
0.170899
0.171272
0.171994
0.172701
0.173649
0.174552
0.175655
0.176695
0.177936
0.179104
0.180473
0.18179
0.183286
0.184768
0.186432
0.18808
0.189998
0.191823
0.194099
0.196191
0.198906
0.201448
0.204743
0.208051
0.212286
0.217021
0.222952
0.230446
0.23963
0.252376
0.267658
0.289486
0.316034
0.352936
0.399191
0.45979
0.533286
0.622682
0.723604
0.842533
0.966102
1.10525
1.23692
1.37798
1.50745
1.64009
1.76779
1.93115
2.09068
2.22202
2.4556
2.49474
0.215309
0.216398
0.216829
0.218337
0.219199
0.220627
0.222873
0.223452
0.222214
0.221214
0.21862
0.221389
0.219763
0.218724
0.218446
0.218763
0.21936
0.220228
0.221298
0.222449
0.223842
0.225186
0.226822
0.228354
0.230186
0.231936
0.233952
0.235953
0.238177
0.240453
0.242942
0.245539
0.248398
0.251509
0.255093
0.259034
0.26379
0.269059
0.275867
0.283545
0.293987
0.305969
0.322363
0.341882
0.367897
0.399933
0.440829
0.491216
0.553784
0.630607
0.723138
0.832867
0.957216
1.09746
1.24592
1.40368
1.56506
1.7226
1.88563
2.02726
2.22928
2.39988
2.53845
2.65079
2.6512
2.6355
2.60313
2.33087
1.58659
0.324174
0.325573
0.326896
0.328588
0.330088
0.331687
0.333261
0.334717
0.33599
0.337328
0.338724
0.34039
0.342356
0.344573
0.347096
0.349828
0.352824
0.356024
0.359498
0.363111
0.367061
0.371153
0.37558
0.380193
0.385198
0.3904
0.396065
0.402056
0.408453
0.415593
0.423023
0.432042
0.442309
0.454915
0.469302
0.486945
0.507422
0.532858
0.563151
0.601671
0.647186
0.702421
0.766588
0.842175
0.929301
1.02915
1.14212
1.27077
1.41518
1.57645
1.75101
1.93575
2.12756
2.32172
2.50906
2.69363
2.86217
3.02708
3.14055
3.30861
3.21772
3.03926
2.92034
2.72056
1.88411
1.2602
1.14503
1.06036
0.983596
1.17866
1.18842
1.19874
1.20928
1.2204
1.23195
1.24375
1.25626
1.26908
1.28243
1.29622
1.3103
1.32512
1.33982
1.35551
1.37101
1.38743
1.40372
1.42081
1.43786
1.45572
1.47383
1.49243
1.51167
1.53148
1.55176
1.57327
1.59601
1.62458
1.65871
1.69892
1.7451
1.79762
1.8565
1.92381
1.99934
2.08387
2.17962
2.28596
2.40161
2.52619
2.65853
2.7987
2.94652
3.10355
3.26921
3.45361
3.64653
3.84658
4.04458
4.23594
4.41002
4.5583
4.67545
4.7456
4.76807
4.70122
4.57785
4.12708
3.39016
2.46737
1.7478
1.46441
1.29226
1.20117
1.09486
1.09368
1.06256
0.98914
8.38093
8.37766
8.3739
8.36959
8.36473
8.35933
8.35328
8.34664
8.33936
8.33138
8.32278
8.31333
8.30334
8.29235
8.28087
8.26827
8.25522
8.24095
8.22629
8.21027
8.19392
8.17616
8.15809
8.13852
8.1187
8.09743
8.07562
8.05294
8.02875
8.00359
7.97601
7.94815
7.91764
7.88457
7.85133
7.81534
7.77541
7.74182
7.70235
7.65924
7.61226
7.55429
7.49111
7.42357
7.35125
7.27362
7.18992
7.09922
7.00035
6.89223
6.77393
6.64313
6.51062
6.39287
6.31741
6.28012
6.25279
6.22513
6.19457
6.16294
6.12932
6.09604
6.06631
6.04011
6.0159
5.99322
5.97159
5.95129
5.93333
0.0288239
0.0288114
0.0288129
0.0287571
0.0287078
0.028639
0.0285853
0.0285538
0.0285481
0.0285436
0.0285204
0.0284955
0.0285122
0.0285296
0.0285122
0.0284759
0.0284772
0.0284788
0.0284913
0.0284484
0.0284828
0.0285042
0.0285073
0.0284894
0.0284797
0.0284345
0.0284557
0.028471
0.0285242
0.028491
0.0284903
0.0284984
0.0285401
0.0285022
0.0284867
0.0284806
0.0285064
0.0284912
0.0284517
0.0284628
0.0284324
0.0284342
0.0284124
0.0284019
0.0284208
0.0284107
0.0283606
0.0283227
0.028321
0.0283071
0.0282882
0.0282648
0.0282489
0.028284
0.0282591
0.0282854
0.0282883
0.028261
0.0282361
0.0291601
0.0291248
0.029076
0.0290216
0.0289718
0.0289237
0.0288897
0.0288564
0.028836
0.0288259
0.0287955
0.0288027
0.0288044
0.0287814
0.0287367
0.0287248
0.0287437
0.0287485
0.0287081
0.0286875
0.0287436
0.0287623
0.0287528
0.0287344
0.028703
0.0286633
0.0286894
0.0287133
0.0287586
0.0287245
0.0287315
0.0287368
0.028775
0.0287456
0.0287277
0.028722
0.028739
0.0287388
0.0287064
0.0286911
0.0286777
0.0286995
0.0286883
0.0286765
0.028682
0.0286846
0.0286476
0.0286009
0.028612
0.0285898
0.0285593
0.0285201
0.0285173
0.0285189
0.0285202
0.0284995
0.0285441
0.0285139
0.0284847
0.0294633
0.0294215
0.0293732
0.0293299
0.029282
0.0292413
0.0292149
0.0292053
0.029185
0.029203
0.0291829
0.0291753
0.0291281
0.0290759
0.0290508
0.0290517
0.0290489
0.0290388
0.0289996
0.0290189
0.0290482
0.0290529
0.0290333
0.0290157
0.0289728
0.0289455
0.0289714
0.0290005
0.0290313
0.0290021
0.0290148
0.0290196
0.0290555
0.0290405
0.0290213
0.0290115
0.0290379
0.0290368
0.0290158
0.0289864
0.0289752
0.0289677
0.0289993
0.0289934
0.0289859
0.0289991
0.02897
0.0289627
0.0289649
0.0289708
0.028952
0.0288999
0.0288059
0.0288065
0.0287679
0.0287984
0.0288019
0.0287903
0.0288357
0.0298157
0.0297784
0.0297305
0.0296797
0.0296463
0.0296393
0.0296382
0.0296217
0.0296173
0.0296332
0.0295695
0.0295099
0.0294475
0.0294013
0.0293872
0.0293964
0.0294035
0.0293681
0.0293466
0.0293929
0.0294156
0.0294168
0.029384
0.029362
0.0292997
0.0292846
0.0293126
0.0293468
0.0293746
0.0293476
0.0293649
0.0293657
0.0294033
0.029393
0.0293784
0.029372
0.029368
0.0293995
0.0293891
0.0293573
0.0293291
0.0293215
0.0293358
0.0293846
0.0293941
0.0293915
0.0293715
0.0293405
0.0293601
0.0293615
0.0293775
0.0293688
0.0293189
0.0292198
0.0291906
0.029159
0.0291383
0.0291777
0.0291926
0.0302464
0.0302057
0.0301496
0.0301157
0.0301187
0.0301261
0.0301331
0.0301483
0.0300901
0.0300396
0.029973
0.0299176
0.0298809
0.0298665
0.0298554
0.0298709
0.0298141
0.0297839
0.0298071
0.029834
0.0298453
0.029833
0.0297802
0.0297501
0.0296894
0.029688
0.0297186
0.0297538
0.0297695
0.0297457
0.0297652
0.0297679
0.0297983
0.0298109
0.0298014
0.0297868
0.0297938
0.0297999
0.0298174
0.0298135
0.0297755
0.0297397
0.0297445
0.0297588
0.0297782
0.0298493
0.0298404
0.0298249
0.0298639
0.0298582
0.0298633
0.0298477
0.0298708
0.0298529
0.0297866
0.0297226
0.0297329
0.029725
0.0297282
0.0308832
0.0308564
0.0308225
0.0307994
0.0307688
0.0307281
0.0306844
0.0306305
0.0305669
0.0305114
0.030465
0.0304341
0.0304184
0.0304054
0.0303735
0.0303215
0.0302776
0.0302848
0.0303106
0.0303321
0.0303363
0.0303204
0.0302519
0.0302172
0.0301575
0.0301669
0.0301982
0.0302367
0.0302536
0.0302338
0.0302576
0.0302563
0.0303006
0.0302981
0.0303045
0.0302883
0.0302761
0.0303093
0.0303428
0.0303271
0.0303127
0.0302903
0.0302901
0.0302637
0.0302718
0.0303136
0.0303467
0.0303729
0.0303954
0.0304306
0.030495
0.0304832
0.0304395
0.0304624
0.0304557
0.0303827
0.0303733
0.0303712
0.030367
0.031559
0.0315183
0.0314683
0.0314235
0.0313683
0.0313156
0.0312629
0.0312136
0.03117
0.0311367
0.0311115
0.0310917
0.0310677
0.0310308
0.0309763
0.0309237
0.0309069
0.0309095
0.0309349
0.0309446
0.0309476
0.030879
0.030809
0.0307656
0.0307195
0.030739
0.030772
0.0308116
0.0308167
0.0307987
0.0308219
0.030827
0.0308517
0.0309016
0.0308847
0.0309046
0.0309074
0.0308888
0.0309163
0.0309926
0.0309731
0.0309145
0.0308994
0.0309009
0.0309045
0.0308806
0.0308921
0.030907
0.0309506
0.0309812
0.031053
0.0311427
0.0312485
0.0312715
0.0312529
0.0312956
0.0312478
0.0312121
0.0312067
0.0323092
0.0322618
0.0322061
0.0321584
0.0321048
0.0320592
0.0320128
0.0319727
0.0319338
0.0318992
0.0318619
0.0318197
0.0317679
0.0317102
0.0316556
0.0316266
0.0316256
0.0316136
0.0316199
0.0316368
0.0316083
0.0315214
0.0314576
0.0314124
0.0313818
0.0314092
0.0314455
0.0314889
0.0314977
0.0314847
0.0315186
0.0315162
0.0315646
0.0315581
0.0316141
0.0315869
0.0315807
0.0316432
0.0316453
0.0316348
0.0317182
0.0317377
0.0317061
0.0317007
0.031703
0.0316792
0.0316918
0.0317146
0.0317495
0.0318497
0.0318732
0.0318213
0.0318256
0.0318576
0.031878
0.0319588
0.0319973
0.0320729
0.0321185
0.0332246
0.0331751
0.0331174
0.0330697
0.033016
0.0329698
0.0329203
0.0328756
0.0328278
0.0327804
0.0327266
0.0326697
0.0326112
0.0325594
0.0325222
0.0324986
0.0324787
0.0324995
0.0325215
0.0324916
0.0324105
0.0323126
0.0322554
0.0322099
0.0321926
0.0322263
0.0322608
0.0323043
0.0323019
0.0322885
0.032321
0.0323339
0.0323417
0.0324238
0.0324085
0.0324687
0.032462
0.0324457
0.0324935
0.0325825
0.0325629
0.032539
0.0326389
0.0326379
0.0326367
0.0326238
0.0326153
0.0326065
0.0325553
0.0325874
0.0326434
0.0327593
0.0328114
0.0328124
0.0329123
0.0328187
0.0328938
0.0329264
0.0328921
0.0343467
0.0342912
0.0342255
0.0341708
0.0341067
0.0340498
0.0339855
0.0339254
0.0338577
0.0337922
0.0337225
0.0336607
0.033606
0.0335692
0.0335469
0.033539
0.0335294
0.0335199
0.0334778
0.0333939
0.0332955
0.0332149
0.0331654
0.033125
0.0331266
0.0331694
0.0332131
0.0332621
0.0332653
0.0332598
0.0333016
0.0333049
0.0333683
0.0333545
0.0334451
0.0334265
0.0334708
0.0335224
0.0334833
0.0334965
0.0336171
0.033712
0.0336653
0.0336546
0.0336971
0.0337431
0.0337899
0.0337867
0.0338662
0.0338485
0.0337675
0.0337459
0.0337763
0.0338428
0.0339139
0.0339936
0.0340476
0.0340655
0.0341314
0.0356989
0.0356292
0.0355473
0.0354761
0.0353945
0.0353202
0.0352395
0.0351649
0.0350888
0.0350223
0.0349627
0.034918
0.0348857
0.0348676
0.0348546
0.0348359
0.0347974
0.0347407
0.0346454
0.034544
0.0344476
0.03437
0.0343199
0.0342896
0.0343037
0.0343443
0.0343829
0.0344272
0.0344201
0.0344144
0.0344566
0.0344911
0.0344832
0.034595
0.0345822
0.0346853
0.0346844
0.0346744
0.0348035
0.0348364
0.0348211
0.0348323
0.0349814
0.0350055
0.035027
0.0350296
0.0349751
0.034951
0.0349941
0.0350841
0.0352364
0.0352496
0.0351914
0.035176
0.0351937
0.035246
0.0352314
0.0353604
0.0353949
0.0372295
0.0371434
0.0370451
0.0369614
0.0368684
0.0367877
0.0367036
0.0366326
0.0365635
0.0365089
0.0364586
0.0364196
0.0363819
0.0363446
0.0362951
0.0362277
0.0361418
0.0360327
0.0359206
0.0358098
0.0357203
0.0356577
0.0356207
0.0356073
0.0356352
0.035691
0.0357453
0.0357993
0.0358
0.0358046
0.0358588
0.0358727
0.035956
0.0359356
0.0360581
0.0360562
0.0361005
0.0362085
0.0361847
0.0361974
0.0363425
0.0364981
0.0365397
0.0365146
0.0365971
0.0366207
0.0366508
0.0367767
0.0368091
0.0368222
0.0367786
0.0367772
0.0369138
0.0369372
0.0371051
0.0371611
0.0372287
0.0372605
0.0371871
0.0391423
0.0390556
0.0389564
0.0388724
0.0387791
0.0386985
0.0386143
0.0385409
0.0384676
0.0384027
0.0383361
0.0382739
0.0382048
0.038131
0.0380416
0.0379406
0.037824
0.0377105
0.0375901
0.0374903
0.0374156
0.0373563
0.0373207
0.0373241
0.0373482
0.037396
0.037441
0.0374836
0.0374758
0.0374827
0.0375418
0.0376033
0.0375857
0.0377336
0.0377263
0.0378264
0.0378863
0.0379058
0.0380257
0.0381035
0.0380781
0.0380902
0.0382014
0.0384541
0.0385152
0.0384308
0.0384217
0.0385108
0.0386141
0.0386986
0.0387541
0.0388535
0.0388726
0.0390637
0.0390809
0.038981
0.0388981
0.0390552
0.0389097
0.0414471
0.0413373
0.0412125
0.0411063
0.0409885
0.040887
0.0407799
0.0406865
0.0405896
0.040501
0.0404069
0.0403148
0.0402122
0.0401018
0.0399776
0.0398455
0.0397148
0.0395774
0.0394587
0.039365
0.0392894
0.0392383
0.0392265
0.0392432
0.0392848
0.0393555
0.0394234
0.0394814
0.0394844
0.0395063
0.0395754
0.0396182
0.0397306
0.0396989
0.0398302
0.0399148
0.0398978
0.0399987
0.040081
0.0402101
0.0403925
0.0405119
0.0404861
0.0404741
0.0405691
0.0407083
0.0408918
0.0411069
0.0409975
0.0410929
0.0409772
0.040999
0.0410342
0.0412578
0.0413627
0.0414447
0.0414141
0.0416316
0.0416606
0.0443036
0.0441822
0.0440437
0.043926
0.0437935
0.043678
0.0435517
0.0434363
0.0433108
0.0431894
0.0430564
0.0429241
0.0427764
0.042629
0.0424756
0.0423289
0.0421795
0.0420539
0.0419482
0.0418627
0.0418021
0.041767
0.0417638
0.0417707
0.0418102
0.041865
0.0419162
0.0419538
0.0419494
0.0419849
0.0420713
0.0421489
0.0421457
0.0423507
0.0423466
0.0423687
0.0426532
0.0425909
0.0426784
0.0426904
0.0428006
0.04302
0.0433603
0.0433878
0.0433799
0.0432817
0.0432724
0.0435743
0.0436412
0.0439752
0.0440655
0.0441569
0.0442092
0.0440133
0.0441612
0.0442545
0.0442892
0.044341
0.0440981
0.0476922
0.0475335
0.047359
0.0472
0.0470258
0.0468629
0.0466878
0.0465214
0.0463444
0.0461723
0.0459945
0.0458184
0.0456409
0.045472
0.0453054
0.0451416
0.0450045
0.044879
0.0447712
0.044693
0.0446298
0.044602
0.0445996
0.0446329
0.044698
0.0447829
0.0448634
0.0449244
0.0449386
0.0449883
0.0450823
0.0451561
0.0453173
0.0452762
0.0454497
0.0456271
0.0456045
0.04587
0.0458274
0.0460819
0.0460527
0.0461105
0.0462688
0.0466431
0.0467614
0.046907
0.0471657
0.0470072
0.0471802
0.0471801
0.0473314
0.04759
0.0477341
0.0479883
0.048032
0.0481081
0.0478877
0.0480846
0.0480821
0.0519833
0.0517867
0.0515657
0.0513631
0.0511409
0.0509322
0.0507121
0.050503
0.0502856
0.0500807
0.0498698
0.049673
0.0494745
0.049292
0.0491029
0.0489491
0.0488024
0.0486692
0.0485766
0.0484904
0.0484441
0.0484344
0.0484384
0.0484483
0.0484909
0.0485404
0.0485917
0.0486317
0.0486474
0.0487293
0.0488603
0.0489549
0.0489939
0.0492619
0.0492131
0.049335
0.0496327
0.0496443
0.0499429
0.0499677
0.0501233
0.0504122
0.0504476
0.0504025
0.0504572
0.0505835
0.0508516
0.051059
0.0513235
0.0517215
0.0515268
0.0517934
0.0518508
0.0523206
0.0524584
0.05239
0.0527218
0.0525072
0.0522283
0.0569292
0.0566767
0.0563988
0.0561448
0.0558696
0.0556149
0.0553484
0.0550975
0.0548435
0.0546008
0.0543617
0.0541304
0.0539091
0.0536939
0.0535
0.0533302
0.0531608
0.0530426
0.05293
0.0528539
0.0528151
0.0527979
0.0528114