/*--------------------------------*- C++ -*----------------------------------*\
| =========                 |                                                 |
| \\      /  F ield         | OpenFOAM: The Open Source CFD Toolbox           |
|  \\    /   O peration     | Version:  2312                                  |
|   \\  /    A nd           | Website:  www.openfoam.com                      |
|    \\/     M anipulation  |                                                 |
\*---------------------------------------------------------------------------*/
FoamFile
{
    version     2.0;
    format      ascii;
    arch        "LSB;label=32;scalar=64";
    class       volScalarField;
    location    "1500";
    object      p;
}
// * * * * * * * * * * * * * * * * * * * * * * * * * * * * * * * * * * * * * //

dimensions      [0 2 -2 0 0 0 0];

internalField   nonuniform List<scalar> 
76025
(
0.000134053
0.000123217
0.00011222
0.000101088
9.00873e-05
7.89048e-05
6.73759e-05
5.61861e-05
4.46738e-05
3.33911e-05
2.21232e-05
1.07744e-05
-6.68799e-07
-1.20157e-05
-2.34475e-05
-3.48072e-05
-4.59143e-05
-5.71778e-05
-6.83634e-05
-7.93576e-05
-9.01711e-05
-0.000101116
-0.00011174
-0.000122065
-0.000132313
-0.000142298
-0.000152377
-0.000162222
-0.000171468
-0.000180981
-0.000189875
-0.000198386
-0.000206947
-0.00021524
-0.000223071
-0.000230412
-0.000237128
-0.000244203
-0.000250644
-0.000256645
-0.00026202
-0.000267009
-0.000272282
-0.00027681
-0.000280859
-0.000284315
-0.000287723
-0.000290624
-0.000292585
-0.000294307
-0.0002958
-0.000296643
-0.000297205
-0.000297578
-0.000297461
-0.000296012
-0.000295195
-0.000293219
-0.000291052
-0.000288738
-0.000286207
-0.000282789
-0.000279391
-0.000276333
-0.000272776
-0.000268046
-0.000264458
-0.000261796
-0.000257361
0.000129087
0.000117738
0.000106321
9.47087e-05
8.29838e-05
7.11669e-05
5.93223e-05
4.74562e-05
3.55364e-05
2.36305e-05
1.17117e-05
-2.29884e-07
-1.21896e-05
-2.41349e-05
-3.59853e-05
-4.77616e-05
-5.95262e-05
-7.1197e-05
-8.28536e-05
-9.43367e-05
-0.000105752
-0.000116991
-0.000128045
-0.000138873
-0.000149573
-0.000160144
-0.000170521
-0.000180563
-0.000190329
-0.00019987
-0.000209142
-0.000218296
-0.000227148
-0.00023559
-0.000243704
-0.000251394
-0.000258732
-0.000265769
-0.000272403
-0.000278694
-0.000284493
-0.000289942
-0.000295075
-0.000299702
-0.00030393
-0.000307723
-0.000311174
-0.000314123
-0.000316552
-0.000318646
-0.000320392
-0.000321649
-0.000322527
-0.000323044
-0.000323057
-0.000322469
-0.000321719
-0.000320432
-0.000318737
-0.000316733
-0.000314627
-0.000312116
-0.00030922
-0.000306353
-0.000303269
-0.000299857
-0.000296716
-0.000294119
-0.000290433
0.000123453
0.00011158
9.96114e-05
8.74145e-05
7.50774e-05
6.27113e-05
5.03192e-05
3.78814e-05
2.54101e-05
1.29084e-05
3.96624e-07
-1.21102e-05
-2.46069e-05
-3.70682e-05
-4.94583e-05
-6.18018e-05
-7.40818e-05
-8.62837e-05
-9.83914e-05
-0.000110387
-0.000122242
-0.00013393
-0.000145451
-0.000156793
-0.000167956
-0.000178929
-0.000189647
-0.000200097
-0.000210291
-0.00022022
-0.000229923
-0.000239367
-0.000248454
-0.000257176
-0.000265539
-0.000273527
-0.000281136
-0.000288376
-0.000295259
-0.000301746
-0.000307789
-0.000313416
-0.000318673
-0.000323554
-0.000328039
-0.000332107
-0.000335771
-0.000339015
-0.000341817
-0.000344203
-0.000346195
-0.000347766
-0.000348933
-0.000349712
-0.000350073
-0.000349977
-0.000349533
-0.000348713
-0.000347525
-0.000346058
-0.000344373
-0.000342406
-0.000340175
-0.000337858
-0.000335432
-0.000332882
-0.00033032
-0.000328264
-0.000325239
0.000117538
0.00010509
9.25302e-05
7.97363e-05
6.68119e-05
5.38457e-05
4.08544e-05
2.78304e-05
1.47771e-05
1.70098e-06
-1.13828e-05
-2.44587e-05
-3.75133e-05
-5.05313e-05
-6.34956e-05
-7.63971e-05
-8.92213e-05
-0.000101955
-0.00011458
-0.000127078
-0.00013943
-0.000151621
-0.000163639
-0.000175464
-0.000187077
-0.000198466
-0.000209613
-0.000220503
-0.000231122
-0.000241462
-0.000251514
-0.000261255
-0.000270654
-0.000279696
-0.000288372
-0.000296676
-0.000304597
-0.000312135
-0.000319283
-0.000326017
-0.000332322
-0.000338215
-0.000343728
-0.000348863
-0.000353596
-0.000357921
-0.000361837
-0.000365341
-0.000368417
-0.000371078
-0.000373345
-0.000375216
-0.000376693
-0.000377785
-0.000378488
-0.000378799
-0.000378757
-0.000378386
-0.000377696
-0.000376731
-0.000375543
-0.00037414
-0.00037254
-0.000370829
-0.000369041
-0.000367232
-0.000365393
-0.000364038
-0.000361762
0.000111137
9.80737e-05
8.49021e-05
7.14903e-05
5.79463e-05
4.43571e-05
3.07448e-05
1.71039e-05
3.43276e-06
-1.02591e-05
-2.39551e-05
-3.76379e-05
-5.12923e-05
-6.49048e-05
-7.84612e-05
-9.19459e-05
-0.000105345
-0.000118643
-0.000131822
-0.000144865
-0.000157755
-0.000170472
-0.000183001
-0.000195321
-0.000207417
-0.000219275
-0.000230881
-0.000242215
-0.000253261
-0.000264006
-0.000274437
-0.000284538
-0.000294293
-0.000303684
-0.0003127
-0.000321332
-0.000329568
-0.0003374
-0.000344818
-0.000351814
-0.00035838
-0.000364529
-0.000370282
-0.000375646
-0.000380611
-0.000385174
-0.000389331
-0.000393081
-0.00039642
-0.000399359
-0.000401909
-0.000404076
-0.000405864
-0.000407282
-0.000408339
-0.000409044
-0.00040942
-0.000409494
-0.000409287
-0.000408834
-0.000408174
-0.000407338
-0.000406354
-0.000405286
-0.000404175
-0.000403102
-0.000402035
-0.0004015
-0.000400268
0.000104074
9.03557e-05
7.65297e-05
6.24558e-05
4.82469e-05
3.39958e-05
1.97256e-05
5.42957e-06
-8.89561e-06
-2.32401e-05
-3.75856e-05
-5.19128e-05
-6.62053e-05
-8.04487e-05
-9.46285e-05
-0.000108729
-0.000122733
-0.000136624
-0.000150384
-0.000163995
-0.00017744
-0.000190699
-0.000203754
-0.000216589
-0.000229185
-0.000241528
-0.000253599
-0.000265381
-0.000276859
-0.000288017
-0.000298841
-0.000309317
-0.00031943
-0.000329164
-0.000338509
-0.000347453
-0.000355986
-0.000364098
-0.000371782
-0.000379035
-0.000385851
-0.000392244
-0.000398233
-0.000403829
-0.000409029
-0.000413831
-0.000418234
-0.000422237
-0.000425843
-0.00042906
-0.000431896
-0.000434363
-0.000436469
-0.000438226
-0.000439646
-0.000440746
-0.000441547
-0.000442074
-0.000442355
-0.000442421
-0.000442309
-0.000442056
-0.000441698
-0.000441292
-0.000440879
-0.000440551
-0.000440261
-0.000440541
-0.000440245
9.62825e-05
8.18762e-05
6.73557e-05
5.25765e-05
3.76589e-05
2.27025e-05
7.73215e-06
-7.25903e-06
-2.22752e-05
-3.73069e-05
-5.23353e-05
-6.73402e-05
-8.23036e-05
-9.72096e-05
-0.000112042
-0.000126785
-0.000141421
-0.00015593
-0.000170294
-0.000184496
-0.000198515
-0.000212335
-0.000225935
-0.000239299
-0.000252408
-0.000265244
-0.00027779
-0.000290029
-0.000301945
-0.000313522
-0.000324745
-0.000335601
-0.000346075
-0.000356154
-0.000365827
-0.000375083
-0.000383914
-0.00039231
-0.000400267
-0.000407782
-0.000414852
-0.000421491
-0.000427721
-0.000433554
-0.000438991
-0.000444032
-0.000448679
-0.000452933
-0.000456801
-0.00046029
-0.000463411
-0.000466178
-0.000468604
-0.000470703
-0.000472493
-0.000473991
-0.000475222
-0.00047621
-0.000476985
-0.00047758
-0.000478031
-0.000478378
-0.00047866
-0.000478931
-0.000479234
-0.000479669
-0.000480155
-0.000481237
-0.000481608
8.77032e-05
7.25714e-05
5.73196e-05
4.17972e-05
2.61317e-05
1.04295e-05
-5.28219e-06
-2.101e-05
-3.67582e-05
-5.25171e-05
-6.82672e-05
-8.39867e-05
-9.96564e-05
-0.000115259
-0.000130778
-0.000146196
-0.000161493
-0.00017665
-0.000191649
-0.000206468
-0.00022109
-0.000235495
-0.000249663
-0.000263576
-0.000277215
-0.000290561
-0.000303598
-0.000316307
-0.000328672
-0.000340678
-0.000352309
-0.000363552
-0.000374394
-0.000384822
-0.000394826
-0.000404397
-0.000413525
-0.000422205
-0.000430432
-0.000438204
-0.000445522
-0.000452402
-0.000458865
-0.000464927
-0.000470592
-0.000475864
-0.000480745
-0.000485242
-0.000489363
-0.000493119
-0.000496524
-0.000499591
-0.000502338
-0.000504784
-0.000506947
-0.00050885
-0.000510517
-0.000511975
-0.000513255
-0.00051439
-0.000515418
-0.000516378
-0.000517316
-0.000518284
-0.000519328
-0.000520549
-0.000521856
-0.00052378
-0.000524933
7.82314e-05
6.23299e-05
4.63046e-05
2.99974e-05
1.35424e-05
-2.94767e-06
-1.94433e-05
-3.59512e-05
-5.24755e-05
-6.90056e-05
-8.55206e-05
-0.000101997
-0.000118414
-0.000134753
-0.000150996
-0.000167125
-0.00018312
-0.000198961
-0.000214626
-0.000230095
-0.000245348
-0.000260365
-0.000275125
-0.000289609
-0.000303798
-0.000317673
-0.000331215
-0.000344407
-0.000357232
-0.000369675
-0.000381721
-0.000393355
-0.000404566
-0.000415342
-0.000425675
-0.000435554
-0.000444973
-0.000453927
-0.000462413
-0.000470432
-0.000477987
-0.000485095
-0.00049178
-0.000498059
-0.000503941
-0.000509432
-0.000514538
-0.000519269
-0.000523635
-0.000527652
-0.000531335
-0.0005347
-0.000537769
-0.000540562
-0.000543102
-0.000545414
-0.000547523
-0.000549458
-0.000551251
-0.000552937
-0.000554553
-0.000556142
-0.00055775
-0.000559431
-0.000561239
-0.000563274
-0.000565479
-0.00056836
-0.00057079
6.77396e-05
5.10185e-05
3.41714e-05
1.70315e-05
-2.60242e-07
-1.75848e-05
-3.49105e-05
-5.22441e-05
-6.959e-05
-8.6937e-05
-0.000104262
-0.00012154
-0.000138748
-0.000155866
-0.000172875
-0.000189756
-0.000206486
-0.000223045
-0.000239411
-0.000255561
-0.000271475
-0.000287131
-0.000302508
-0.000317586
-0.000332345
-0.000346765
-0.000360827
-0.000374514
-0.000387808
-0.000400694
-0.000413158
-0.000425185
-0.000436763
-0.000447884
-0.000458538
-0.000468717
-0.000478416
-0.000487632
-0.000496365
-0.000504616
-0.000512392
-0.000519713
-0.000526605
-0.000533086
-0.000539169
-0.000544863
-0.000550179
-0.00055513
-0.00055973
-0.000563996
-0.000567947
-0.000571605
-0.000574991
-0.00057813
-0.000581048
-0.00058377
-0.000586325
-0.000588743
-0.000591057
-0.000593303
-0.00059552
-0.000597751
-0.000600041
-0.00060245
-0.000605026
-0.000607879
-0.000610971
-0.000614958
-0.000618804
5.60901e-05
3.84964e-05
2.07747e-05
2.74943e-06
-1.54312e-05
-3.36414e-05
-5.18471e-05
-7.00554e-05
-8.8271e-05
-0.000106482
-0.000124664
-0.00014279
-0.000160835
-0.000178777
-0.000196595
-0.000214269
-0.000231775
-0.000249091
-0.000266193
-0.000283058
-0.000299664
-0.000315988
-0.000332009
-0.000347704
-0.000363053
-0.000378036
-0.000392633
-0.000406827
-0.000420599
-0.000433934
-0.000446817
-0.000459236
-0.000471179
-0.000482637
-0.000493603
-0.000504071
-0.000514035
-0.000523497
-0.000532458
-0.000540923
-0.0005489
-0.000556413
-0.000563488
-0.000570149
-0.000576411
-0.000582288
-0.000587794
-0.000592945
-0.00059776
-0.00060226
-0.000606467
-0.000610406
-0.000614102
-0.000617582
-0.000620874
-0.000624006
-0.00062701
-0.000629915
-0.000632758
-0.000635574
-0.000638402
-0.000641288
-0.000644277
-0.000647425
-0.000650771
-0.000654424
-0.000658323
-0.000663238
-0.00066785
4.31255e-05
2.46031e-05
5.95078e-06
-1.30163e-05
-3.21423e-05
-5.12936e-05
-7.04338e-05
-8.957e-05
-0.000108707
-0.000127834
-0.000146923
-0.000165946
-0.000184875
-0.000203688
-0.000222361
-0.000240873
-0.000259197
-0.000277311
-0.000295188
-0.000312805
-0.000330136
-0.000347159
-0.000363851
-0.000380188
-0.00039615
-0.000411714
-0.000426861
-0.000441571
-0.000455829
-0.000469616
-0.00048292
-0.000495727
-0.000508028
-0.000519814
-0.000531078
-0.000541817
-0.000552028
-0.000561714
-0.000570879
-0.000579531
-0.000587682
-0.000595358
-0.000602588
-0.0006094
-0.000615811
-0.000621841
-0.000627508
-0.000632834
-0.000637841
-0.000642553
-0.000646998
-0.000651203
-0.000655196
-0.000659009
-0.00066267
-0.00066621
-0.000669663
-0.000673059
-0.000676437
-0.000679831
-0.000683284
-0.00068684
-0.000690544
-0.000694446
-0.000698583
-0.000703058
-0.000707793
-0.000713395
-0.000717628
2.86609e-05
9.14937e-06
-1.04936e-05
-3.04632e-05
-5.05954e-05
-7.0748e-05
-9.08817e-05
-0.000111004
-0.00013112
-0.000151217
-0.000171268
-0.00019124
-0.000211106
-0.000230839
-0.000250416
-0.000269811
-0.000288999
-0.000307952
-0.000326645
-0.000345051
-0.000363144
-0.000380898
-0.00039829
-0.000415295
-0.00043189
-0.000448054
-0.000463764
-0.000479003
-0.000493751
-0.000507993
-0.000521715
-0.000534904
-0.000547551
-0.00055965
-0.000571194
-0.000582181
-0.000592613
-0.000602494
-0.000611831
-0.000620636
-0.000628925
-0.000636725
-0.000644073
-0.000650995
-0.000657518
-0.000663663
-0.000669456
-0.000674922
-0.000680089
-0.000684985
-0.000689643
-0.000694093
-0.000698368
-0.000702501
-0.000706522
-0.000710467
-0.000714368
-0.000718259
-0.000722178
-0.000726163
-0.000730255
-0.000734496
-0.000738928
-0.000743603
-0.000748568
-0.00075393
-0.000759635
-0.000766118
-0.000772206
1.24803e-05
-8.08514e-06
-2.87838e-05
-4.98215e-05
-7.10254e-05
-9.22443e-05
-0.000113435
-0.000134606
-0.000155762
-0.00017689
-0.000197961
-0.000218941
-0.000239798
-0.000260506
-0.000281037
-0.000301365
-0.000321463
-0.000341302
-0.000360852
-0.000380086
-0.000398976
-0.000417494
-0.000435616
-0.000453314
-0.000470564
-0.000487344
-0.000503632
-0.000519406
-0.000534649
-0.000549344
-0.000563477
-0.000577036
-0.000590014
-0.000602404
-0.000614202
-0.000625407
-0.000636025
-0.000646063
-0.000655531
-0.000664445
-0.000672824
-0.000680702
-0.000688116
-0.0006951
-0.000701684
-0.000707897
-0.00071377
-0.000719333
-0.000724621
-0.000729666
-0.000734506
-0.000739176
-0.000743711
-0.000748147
-0.000752519
-0.000756862
-0.00076121
-0.000765601
-0.000770071
-0.00077466
-0.000779407
-0.00078435
-0.000789532
-0.000795018
-0.000800851
-0.000807124
-0.000813716
-0.00082126
-0.000828143
-5.66695e-06
-2.7357e-05
-4.91818e-05
-7.13589e-05
-9.37058e-05
-0.000116062
-0.000138379
-0.000160667
-0.00018293
-0.000205155
-0.00022731
-0.00024936
-0.00027127
-0.00029301
-0.000314551
-0.000335866
-0.000356925
-0.000377696
-0.000398149
-0.000418252
-0.000437977
-0.000457293
-0.000476174
-0.00049459
-0.000512517
-0.00052993
-0.000546804
-0.00056312
-0.000578858
-0.000594001
-0.000608534
-0.000622447
-0.000635733
-0.000648385
-0.000660402
-0.000671787
-0.000682546
-0.000692691
-0.000702237
-0.000711201
-0.000719611
-0.000727503
-0.00073492
-0.000741902
-0.000748484
-0.000754704
-0.000760597
-0.000766203
-0.00077156
-0.00077671
-0.000781693
-0.00078655
-0.000791319
-0.000796039
-0.000800747
-0.000805482
-0.000810278
-0.000815173
-0.000820205
-0.000825413
-0.000830832
-0.000836504
-0.000842489
-0.000848833
-0.000855557
-0.000862733
-0.000870288
-0.000878761
-0.000887142
-2.60718e-05
-4.89628e-05
-7.199e-05
-9.53835e-05
-0.000118951
-0.00014252
-0.00016604
-0.000189518
-0.00021296
-0.000236353
-0.000259663
-0.000282851
-0.000305879
-0.000328715
-0.000351329
-0.000373689
-0.000395763
-0.000417519
-0.000438921
-0.000459938
-0.000480537
-0.000500686
-0.000520356
-0.000539516
-0.000558139
-0.000576198
-0.000593668
-0.000610527
-0.000626755
-0.000642333
-0.000657249
-0.000671491
-0.000685052
-0.000697927
-0.000710118
-0.00072163
-0.000732473
-0.000742662
-0.000752216
-0.000761159
-0.000769522
-0.00077735
-0.00078469
-0.000791589
-0.000798092
-0.000804241
-0.000810083
-0.000815664
-0.000821031
-0.00082623
-0.00083131
-0.000836313
-0.000841285
-0.000846266
-0.000851297
-0.000856415
-0.000861658
-0.000867063
-0.000872668
-0.000878509
-0.000884633
-0.00089109
-0.000897919
-0.000905136
-0.000912777
-0.000920926
-0.000929564
-0.000939021
-0.00094841
-4.90794e-05
-7.32548e-05
-9.75682e-05
-0.000122262
-0.000147135
-0.000172001
-0.000196806
-0.000221555
-0.000246257
-0.000270896
-0.000295438
-0.000319839
-0.000344059
-0.000368062
-0.000391815
-0.000415285
-0.000438436
-0.000461234
-0.00048364
-0.000505619
-0.000527137
-0.000548158
-0.00056865
-0.000588582
-0.000607922
-0.000626642
-0.000644715
-0.000662117
-0.000678827
-0.000694826
-0.0007101
-0.000724638
-0.000738433
-0.000751483
-0.000763789
-0.000775362
-0.000786214
-0.000796366
-0.000805841
-0.000814667
-0.000822885
-0.000830545
-0.000837704
-0.000844416
-0.000850735
-0.000856715
-0.000862411
-0.000867879
-0.000873175
-0.000878354
-0.00088347
-0.00088857
-0.000893705
-0.000898918
-0.000904251
-0.000909742
-0.000915429
-0.000921347
-0.000927535
-0.000934047
-0.000940924
-0.00094819
-0.000955865
-0.000964001
-0.000972643
-0.000981864
-0.00099166
-0.00100256
-0.00101385
-7.50813e-05
-0.000100631
-0.00012632
-0.000152405
-0.000178673
-0.000204926
-0.000231105
-0.000257213
-0.00028326
-0.000309231
-0.000335087
-0.000360782
-0.000386272
-0.000411518
-0.000436484
-0.000461133
-0.000485428
-0.000509328
-0.000532795
-0.000555789
-0.000578272
-0.000600205
-0.000621554
-0.000642284
-0.00066236
-0.000681753
-0.000700432
-0.000718372
-0.000735549
-0.000751944
-0.000767542
-0.000782332
-0.000796307
-0.000809465
-0.000821813
-0.000833363
-0.000844131
-0.000854142
-0.000863427
-0.000872019
-0.000879968
-0.000887336
-0.000894187
-0.000900586
-0.000906598
-0.000912289
-0.000917727
-0.000922979
-0.000928111
-0.000933187
-0.000938267
-0.000943407
-0.00094866
-0.000954072
-0.000959684
-0.000965533
-0.000971654
-0.000978094
-0.000984902
-0.000992116
-0.000999745
-0.00100783
-0.00101642
-0.00102555
-0.00103526
-0.00104564
-0.00105675
-0.00106918
-0.00108212
-0.000104572
-0.000131596
-0.000158761
-0.000186339
-0.000214104
-0.000241847
-0.000269498
-0.000297065
-0.000324555
-0.000351952
-0.000379216
-0.000406298
-0.000433149
-0.000459726
-0.000485989
-0.000511899
-0.000537414
-0.000562491
-0.000587087
-0.000611158
-0.000634663
-0.000657559
-0.000679808
-0.000701371
-0.000722211
-0.000742294
-0.000761587
-0.000780062
-0.000797692
-0.000814457
-0.00083034
-0.000845329
-0.000859417
-0.000872605
-0.000884902
-0.000896321
-0.000906886
-0.000916625
-0.000925574
-0.000933776
-0.000941294
-0.000948198
-0.000954566
-0.000960477
-0.00096601
-0.000971247
-0.000976272
-0.000981164
-0.000986004
-0.000990866
-0.00099582
-0.00100093
-0.00100625
-0.00101182
-0.00101768
-0.00102387
-0.00103044
-0.00103742
-0.00104485
-0.00105274
-0.00106114
-0.00107012
-0.00107968
-0.00108986
-0.00110074
-0.00111244
-0.00112488
-0.00113849
-0.00115241
-0.00013805
-0.000166652
-0.000195396
-0.00022457
-0.000253938
-0.000283273
-0.000312502
-0.000341627
-0.000370659
-0.000399581
-0.000428351
-0.000456914
-0.000485217
-0.000513214
-0.00054086
-0.000568111
-0.000594924
-0.00062125
-0.000647041
-0.000672249
-0.000696829
-0.000720733
-0.000743919
-0.000766343
-0.000787964
-0.000808744
-0.000828647
-0.000847641
-0.000865697
-0.000882792
-0.000898906
-0.000914026
-0.000928145
-0.000941266
-0.000953397
-0.000964556
-0.000974772
-0.000984078
-0.000992517
-0.00100015
-0.00100704
-0.00101329
-0.00101897
-0.0010242
-0.00102907
-0.00103367
-0.00103811
-0.00104249
-0.0010469
-0.00105144
-0.00105618
-0.00106118
-0.00106651
-0.00107221
-0.00107831
-0.00108486
-0.00109188
-0.00109938
-0.0011074
-0.00111601
-0.00112525
-0.00113513
-0.00114574
-0.00115716
-0.00116941
-0.00118249
-0.00119618
-0.00121075
-0.00122503
-0.000176314
-0.00020662
-0.000237073
-0.000267975
-0.000299076
-0.000330135
-0.00036107
-0.000391883
-0.000422584
-0.000453157
-0.000483556
-0.000513723
-0.000543599
-0.000573133
-0.000602276
-0.000630979
-0.000659195
-0.00068687
-0.000713951
-0.000740386
-0.000766122
-0.000791109
-0.000815297
-0.000838637
-0.000861082
-0.00088259
-0.000903117
-0.000922627
-0.000941087
-0.00095847
-0.000974754
-0.000989924
-0.00100397
-0.0010169
-0.00102872
-0.00103945
-0.00104913
-0.00105779
-0.00106548
-0.00107227
-0.00107826
-0.00108355
-0.00108824
-0.00109246
-0.00109634
-0.0011
-0.00110357
-0.00110719
-0.00111096
-0.00111499
-0.00111936
-0.00112416
-0.00112944
-0.00113524
-0.00114158
-0.00114847
-0.00115591
-0.00116395
-0.00117263
-0.00118198
-0.00119207
-0.00120301
-0.0012149
-0.00122777
-0.00124158
-0.00125633
-0.00127181
-0.00128808
-0.0013039
-0.000219794
-0.000251912
-0.000284173
-0.000316907
-0.000349848
-0.000382738
-0.000415485
-0.00044809
-0.000480563
-0.000512889
-0.000545018
-0.000576888
-0.000608434
-0.000639599
-0.000670329
-0.000700571
-0.00073027
-0.00075937
-0.00078781
-0.000815531
-0.000842476
-0.000868587
-0.000893809
-0.000918088
-0.00094137
-0.000963607
-0.00098475
-0.00100475
-0.00102358
-0.0010412
-0.00105758
-0.0010727
-0.00108655
-0.00109914
-0.00111046
-0.00112056
-0.00112946
-0.00113722
-0.0011439
-0.00114959
-0.00115439
-0.00115844
-0.00116186
-0.00116479
-0.0011674
-0.00116985
-0.00117229
-0.0011749
-0.00117782
-0.00118119
-0.0011851
-0.00118963
-0.00119483
-0.00120071
-0.00120728
-0.00121453
-0.00122247
-0.00123111
-0.00124048
-0.00125068
-0.00126186
-0.00127416
-0.00128761
-0.00130229
-0.00131826
-0.00133561
-0.00135405
-0.00137376
-0.0013933
-0.000270334
-0.000304456
-0.000338738
-0.000373509
-0.000408493
-0.000443415
-0.000478175
-0.000512771
-0.000547212
-0.000581484
-0.000615535
-0.000649297
-0.000682699
-0.000715679
-0.000748175
-0.000780132
-0.000811487
-0.000842176
-0.000872135
-0.000901295
-0.000929591
-0.000956956
-0.000983325
-0.00100864
-0.00103283
-0.00105584
-0.00107763
-0.00109813
-0.00111731
-0.00113512
-0.00115152
-0.0011665
-0.00118003
-0.00119211
-0.00120276
-0.00121198
-0.00121981
-0.0012263
-0.00123154
-0.00123563
-0.0012387
-0.00124091
-0.00124243
-0.00124344
-0.00124415
-0.00124476
-0.00124548
-0.00124653
-0.00124812
-0.00125043
-0.00125358
-0.00125764
-0.00126265
-0.00126859
-0.00127544
-0.00128313
-0.00129163
-0.00130099
-0.00131131
-0.00132274
-0.00133543
-0.00134949
-0.00136506
-0.00138231
-0.00140133
-0.0014221
-0.00144403
-0.00146724
-0.00148872
-0.000326646
-0.000362825
-0.000399137
-0.000435978
-0.000473054
-0.000510066
-0.000546897
-0.000583545
-0.000620019
-0.000656304
-0.000692343
-0.000728064
-0.000763388
-0.000798245
-0.000832567
-0.000866291
-0.000899351
-0.000931675
-0.000963192
-0.000993827
-0.00102351
-0.00105215
-0.0010797
-0.00110606
-0.00113118
-0.00115497
-0.00117737
-0.00119832
-0.00121777
-0.00123565
-0.00125194
-0.0012666
-0.0012796
-0.00129093
-0.00130062
-0.00130867
-0.00131513
-0.00132006
-0.00132357
-0.00132578
-0.00132683
-0.00132693
-0.00132627
-0.00132509
-0.00132365
-0.0013222
-0.00132101
-0.00132034
-0.00132044
-0.00132156
-0.0013239
-0.00132758
-0.00133259
-0.00133887
-0.00134628
-0.00135472
-0.00136416
-0.00137466
-0.00138635
-0.0013994
-0.00141399
-0.00143024
-0.00144822
-0.00146798
-0.00148945
-0.00151211
-0.0015346
-0.001556
-0.00157338
-0.000396318
-0.000434885
-0.00047367
-0.000512983
-0.000552524
-0.00059199
-0.000631256
-0.000670312
-0.000709172
-0.000747821
-0.000786202
-0.000824233
-0.000861831
-0.000898914
-0.000935408
-0.000971242
-0.00100634
-0.00104062
-0.001074
-0.00110639
-0.00113771
-0.00116788
-0.00119682
-0.00122444
-0.00125066
-0.0012754
-0.00129856
-0.00132007
-0.00133987
-0.00135787
-0.00137401
-0.00138826
-0.00140056
-0.00141089
-0.00141923
-0.00142557
-0.00142995
-0.00143246
-0.00143319
-0.0014323
-0.00142999
-0.00142648
-0.00142206
-0.00141706
-0.00141184
-0.00140679
-0.00140233
-0.00139885
-0.00139665
-0.001396
-0.00139719
-0.00140044
-0.00140574
-0.00141281
-0.00142128
-0.00143091
-0.00144155
-0.00145322
-0.00146613
-0.00148056
-0.00149661
-0.00151389
-0.00153183
-0.0015501
-0.0015686
-0.00158643
-0.00160139
-0.00161247
-0.00161856
-0.000465626
-0.000506625
-0.000547649
-0.000589284
-0.00063121
-0.000673062
-0.000714689
-0.000756076
-0.00079724
-0.000838168
-0.000878802
-0.000919056
-0.000958838
-0.00099806
-0.00103664
-0.0010745
-0.00111157
-0.00114774
-0.00118294
-0.00121705
-0.00124998
-0.00128162
-0.00131189
-0.00134068
-0.00136791
-0.00139348
-0.00141731
-0.00143929
-0.00145932
-0.00147733
-0.00149324
-0.001507
-0.00151857
-0.0015279
-0.00153495
-0.00153971
-0.0015422
-0.00154248
-0.00154066
-0.0015369
-0.00153142
-0.00152449
-0.00151644
-0.00150767
-0.00149866
-0.00148997
-0.00148224
-0.00147606
-0.00147191
-0.00147012
-0.00147095
-0.00147465
-0.00148124
-0.00149013
-0.00150047
-0.00151145
-0.00152261
-0.00153389
-0.00154562
-0.0015582
-0.0015715
-0.00158403
-0.00159429
-0.00160226
-0.0016095
-0.00161692
-0.00162309
-0.00162767
-0.00163008
-0.000571526
-0.000615034
-0.000659085
-0.000703759
-0.000748718
-0.000793629
-0.000838332
-0.000882796
-0.000927027
-0.000971004
-0.00101466
-0.00105791
-0.00110064
-0.00114276
-0.00118417
-0.00122478
-0.00126449
-0.00130322
-0.00134085
-0.00137729
-0.00141243
-0.00144613
-0.00147828
-0.00150874
-0.0015374
-0.00156417
-0.00158892
-0.00161153
-0.00163185
-0.0016497
-0.00166493
-0.0016775
-0.00168734
-0.00169437
-0.00169855
-0.00169988
-0.00169839
-0.00169417
-0.00168732
-0.00167804
-0.00166653
-0.0016531
-0.00163816
-0.00162219
-0.00160581
-0.00158977
-0.00157489
-0.00156209
-0.00155235
-0.00154643
-0.0015449
-0.0015481
-0.0015558
-0.00156676
-0.00157877
-0.00158942
-0.00159713
-0.0016016
-0.00160383
-0.00160555
-0.00160811
-0.00161055
-0.0016115
-0.00161144
-0.00161295
-0.00161753
-0.00162397
-0.00162977
-0.00163375
-0.000643794
-0.000690413
-0.000736616
-0.000783654
-0.000831115
-0.000878488
-0.0009256
-0.000972461
-0.0010191
-0.00106548
-0.00111155
-0.00115718
-0.00120227
-0.00124673
-0.00129045
-0.00133333
-0.00137528
-0.00141616
-0.00145586
-0.00149425
-0.00153123
-0.00156668
-0.00160046
-0.00163243
-0.00166244
-0.00169039
-0.00171621
-0.00173991
-0.00176146
-0.00178058
-0.00179691
-0.0018102
-0.00182027
-0.00182702
-0.0018304
-0.00183034
-0.00182681
-0.00181982
-0.00180941
-0.0017957
-0.00177889
-0.00175929
-0.00173737
-0.00171375
-0.00168932
-0.00166512
-0.00164232
-0.00162223
-0.00160617
-0.00159538
-0.00159075
-0.00159251
-0.00159988
-0.00161074
-0.00162151
-0.00162852
-0.00163007
-0.00162635
-0.00161938
-0.0016127
-0.00160949
-0.00160998
-0.00161223
-0.00161413
-0.00161534
-0.00161711
-0.00162
-0.00162342
-0.00162744
-0.000811538
-0.000861296
-0.000912461
-0.000964258
-0.00101609
-0.00106768
-0.00111897
-0.00116996
-0.00122068
-0.00127111
-0.00132118
-0.00137075
-0.00141971
-0.00146793
-0.00151532
-0.00156176
-0.00160712
-0.0016513
-0.00169413
-0.00173547
-0.00177515
-0.00181301
-0.00184887
-0.00188256
-0.00191384
-0.00194245
-0.00196811
-0.00199048
-0.00200937
-0.00202492
-0.00203728
-0.00204637
-0.00205199
-0.00205386
-0.00205172
-0.00204532
-0.00203448
-0.00201905
-0.00199896
-0.00197428
-0.00194518
-0.00191203
-0.0018754
-0.00183608
-0.00179516
-0.00175397
-0.00171407
-0.00167724
-0.00164535
-0.00162017
-0.00160307
-0.00159478
-0.00159507
-0.0016024
-0.00161336
-0.00162348
-0.00162968
-0.00163106
-0.00162815
-0.00162269
-0.00161744
-0.00161474
-0.00161401
-0.00161372
-0.00161368
-0.00161437
-0.00161586
-0.00161786
-0.00162098
0.000411883
0.000415434
0.000419356
0.000423685
0.000428291
0.000433187
0.00043847
0.00044401
0.000449884
0.000455927
0.000462226
0.000468847
0.000475493
0.000482732
0.000489206
0.000495942
0.000501924
0.000508241
0.000513973
0.000519445
0.000524733
0.000528413
0.000531701
0.000533662
0.000534683
0.000534801
0.000533265
0.000530392
0.000526389
0.000521129
0.000513696
0.000505035
0.00049521
0.000484463
0.000471878
0.000458437
0.000444326
0.000429381
0.000413663
0.000397717
0.000381478
0.00036498
0.000348802
0.000332897
0.0003165
0.000301095
0.000285547
0.00027082
0.000256386
0.000242437
0.00022921
0.000216562
0.000204629
0.000193391
0.000182738
0.000172148
0.000162286
0.00015287
0.000143962
0.000416019
0.00041982
0.000424028
0.000428547
0.000433396
0.000438579
0.000444101
0.000449924
0.00045607
0.000462495
0.000469165
0.000476067
0.000483111
0.000490289
0.000497525
0.000504516
0.000511401
0.000517999
0.000524275
0.000529979
0.00053515
0.000539557
0.00054303
0.000545394
0.000546641
0.000546706
0.000545434
0.000542601
0.00053859
0.000533017
0.000525508
0.000516722
0.00050663
0.000495116
0.000482232
0.000468272
0.000453478
0.000437945
0.000421698
0.000404963
0.000388032
0.000370957
0.000353954
0.000336918
0.000320127
0.000303735
0.000287689
0.000272205
0.000257202
0.00024271
0.000228861
0.000215653
0.000203019
0.000191022
0.000179538
0.000168648
0.000158327
0.000148577
0.000139345
0.000420622
0.000424656
0.000429067
0.000433828
0.000438943
0.000444413
0.000450229
0.00045638
0.000462859
0.000469636
0.000476669
0.000483906
0.000491313
0.000498851
0.000506438
0.000514004
0.000521422
0.000528525
0.000535194
0.000541303
0.000546724
0.000551494
0.000555307
0.000557989
0.00055948
0.000559634
0.000558416
0.000555697
0.000551581
0.000545826
0.000538227
0.000529171
0.000518592
0.000506565
0.000493179
0.000478685
0.000463211
0.00044697
0.000430048
0.000412628
0.00039489
0.000376939
0.000358982
0.000341178
0.000323621
0.000306459
0.000289708
0.000273453
0.000257733
0.000242566
0.000228028
0.000214115
0.000200829
0.000188161
0.000176153
0.000164785
0.000154015
0.000143835
0.000134178
0.000425016
0.000429275
0.000433942
0.000438979
0.000444394
0.000450187
0.000456349
0.000462867
0.000469724
0.000476894
0.000484346
0.000492032
0.000499912
0.000507919
0.000515957
0.000523981
0.000531829
0.000539402
0.000546537
0.000553132
0.000559022
0.00056412
0.000568245
0.000571217
0.000572945
0.000573265
0.000572128
0.000569445
0.000565237
0.000559317
0.000551521
0.000542114
0.000531075
0.000518566
0.000504629
0.000489516
0.000473349
0.000456325
0.000438596
0.000420353
0.000401744
0.000382933
0.000364128
0.000345504
0.000327116
0.000309109
0.000291546
0.000274491
0.000258007
0.000242124
0.000226887
0.000212316
0.000198424
0.000185203
0.000172654
0.00016076
0.000149496
0.00013885
0.000128761
0.000429192
0.000433696
0.000438631
0.000443957
0.000449684
0.000455811
0.000462331
0.000469234
0.0004765
0.000484106
0.000492016
0.000500188
0.000508567
0.00051708
0.000525638
0.000534153
0.000542502
0.000550576
0.000558227
0.00056532
0.000571693
0.000577193
0.000581662
0.000584943
0.000586915
0.000587428
0.000586411
0.000583745
0.000579453
0.000573362
0.000565317
0.000555543
0.000544056
0.000531025
0.000516503
0.000500714
0.000483811
0.00046598
0.000447401
0.000428275
0.000408781
0.000389105
0.000369425
0.0003499
0.000330628
0.000311736
0.000293315
0.000275436
0.00025816
0.000241529
0.000225579
0.000210334
0.000195801
0.000181974
0.000168842
0.000156393
0.000144605
0.000133463
0.000122905
0.000433285
0.000438049
0.000443264
0.000448888
0.000454936
0.000461408
0.000468299
0.0004756
0.000483293
0.000491353
0.000499742
0.000508415
0.000517312
0.000526359
0.000535469
0.000544539
0.000553452
0.00056208
0.000570274
0.000577884
0.000584744
0.000590692
0.000595558
0.000599183
0.000601427
0.00060215
0.000601263
0.00059863
0.000594262
0.000587998
0.000579694
0.000569548
0.000557595
0.000544001
0.000528849