/*--------------------------------*- C++ -*----------------------------------*\
| =========                 |                                                 |
| \\      /  F ield         | OpenFOAM: The Open Source CFD Toolbox           |
|  \\    /   O peration     | Version:  2312                                  |
|   \\  /    A nd           | Website:  www.openfoam.com                      |
|    \\/     M anipulation  |                                                 |
\*---------------------------------------------------------------------------*/
FoamFile
{
    version     2.0;
    format      ascii;
    arch        "LSB;label=32;scalar=64";
    class       surfaceScalarField;
    location    "1500";
    object      phi;
}
// * * * * * * * * * * * * * * * * * * * * * * * * * * * * * * * * * * * * * //

dimensions      [0 3 -1 0 0 0 0];

oriented        oriented;

internalField   nonuniform List<scalar> 
116611
(
0.00123095
0.00043895
-0.00121516
-0.000454746
0.00124667
0.000435775
-0.00045149
0.00126213
0.000432277
-0.000447739
0.00127735
0.000428427
-0.000443652
0.00129248
0.000424296
-0.000439423
0.00130761
0.000419841
-0.000434973
0.00132237
0.000415075
-0.000429836
0.00133726
0.000410048
-0.00042493
0.00135159
0.00040461
-0.000418947
0.00136579
0.000398809
-0.000413008
0.00137972
0.000392598
-0.000406529
0.00139348
0.000386023
-0.00039978
0.00140688
0.000379058
-0.00039246
0.00141989
0.000371652
-0.000384661
0.00143252
0.000363839
-0.000376466
0.0014447
0.000355589
-0.000367766
0.00145663
0.000346851
-0.000358786
0.00146818
0.000337758
-0.000349312
0.00147927
0.000328064
-0.000339151
0.00148991
0.000318017
-0.000328654
0.00150015
0.000307379
-0.000317619
0.00150976
0.00029628
-0.000305888
0.00151878
0.000284606
-0.000293627
0.00152734
0.000272496
-0.000281059
0.00153534
0.000259854
-0.000267854
0.00154295
0.000246693
-0.000254306
0.00154993
0.000232919
-0.000239902
0.00155622
0.000218639
-0.000224921
0.00156225
0.000203898
-0.00020993
0.00156728
0.000188614
-0.000193645
0.00157213
0.000172858
-0.000177712
0.00157651
0.000156346
-0.000160719
0.00158018
0.000139308
-0.000142982
0.00158322
0.000121733
-0.000124768
0.00158565
0.000103541
-0.000105979
0.00158737
8.48807e-05
-8.65948e-05
0.00158903
6.57497e-05
-6.74068e-05
0.00158978
4.60067e-05
-4.67578e-05
0.0015901
2.5669e-05
-2.59959e-05
0.00158963
4.63122e-06
-4.15783e-06
0.00158859
-1.67965e-05
1.78399e-05
0.00158747
-3.87527e-05
3.98689e-05
0.00158545
-6.13575e-05
6.33767e-05
0.00158281
-8.44573e-05
8.71022e-05
0.00157939
-0.000108076
0.000111493
0.00157572
-0.000132043
0.00013571
0.00157143
-0.000156577
0.000160864
0.00156603
-0.000181635
0.000187041
0.00156022
-0.000206909
0.000212718
0.0015538
-0.000232515
0.000238934
0.0015465
-0.00025853
0.000265829
0.00153875
-0.000284706
0.000292456
0.00153041
-0.00031117
0.000319507
0.00152112
-0.000337976
0.000347274
0.00151035
-0.000364958
0.000375726
0.00149969
-0.000391587
0.000402249
0.00148751
-0.000418518
0.000430692
0.00147501
-0.000445177
0.00045768
0.00146183
-0.000471563
0.000484739
0.00144818
-0.000497441
0.000511097
0.0014339
-0.000523169
0.000537447
0.00141934
-0.000548648
0.000563204
0.00140425
-0.000573318
0.00058841
0.00138861
-0.000597504
0.000613149
0.00137232
-0.00062093
0.000637215
0.0013565
-0.000643194
0.000659014
0.00134114
-0.000664585
0.000679952
0.00132603
-0.00068524
0.000700348
-0.000705913
0.00130927
0.000722668
0.00121749
0.00042319
-0.00120173
0.0012331
0.000420158
0.00124855
0.000416832
0.00126378
0.000413195
0.00127886
0.00040922
0.00129375
0.000404951
0.00130846
0.00040036
0.00132306
0.000395447
0.00133745
0.000390223
0.00135162
0.000384637
0.00136554
0.000378683
0.0013792
0.000372357
0.00139262
0.000365645
0.00140573
0.000358542
0.0014185
0.000351064
0.00143094
0.000343152
0.00144298
0.000334814
0.0014547
0.000326034
0.00146596
0.000316801
0.00147688
0.000307096
0.00148735
0.000296916
0.00149736
0.000286264
0.00150686
0.000275112
0.00151588
0.000263475
0.0015244
0.000251331
0.00153244
0.000238651
0.0015399
0.00022546
0.0015468
0.000211743
0.00155319
0.000197502
0.00155904
0.000182771
0.00156443
0.000167462
0.00156922
0.000151559
0.00157341
0.000135121
0.00157701
0.000118126
0.00157999
0.000100569
0.0015824
8.24661e-05
0.00158432
6.38345e-05
0.00158565
4.46693e-05
0.00158641
2.4908e-05
0.00158648
4.56336e-06
0.00158599
-1.63087e-05
0.00158493
-3.76879e-05
0.00158316
-5.95909e-05
0.00158074
-8.20309e-05
0.00157762
-0.000104961
0.00157391
-0.000128333
0.00156949
-0.00015215
0.00156428
-0.000176425
0.00155842
-0.000201053
0.0015519
-0.00022599
0.00154462
-0.000251259
0.00153671
-0.000276788
0.00152809
-0.000302552
0.00151866
-0.000328546
0.0015084
-0.000354705
0.00149764
-0.000380823
0.00148607
-0.000406948
0.00147388
-0.000432991
0.00146112
-0.000458795
0.00144798
-0.000484307
0.00143437
-0.000509563
0.00142023
-0.000534505
0.00140579
-0.000558879
0.00139101
-0.000582717
0.001376
-0.000605921
0.00136107
-0.000628267
0.0013462
-0.000649721
0.00133139
-0.000670424
-0.000690693
0.00131617
0.0012049
0.000407619
-0.00118933
0.00122038
0.000404673
0.00123576
0.000401456
0.00125099
0.000397966
0.00126603
0.000394183
0.00128088
0.000390098
0.00129554
0.000385699
0.00131001
0.000380974
0.00132431
0.000375925
0.0013384
0.000370544
0.00135227
0.00036482
0.00136588
0.000358741
0.00137923
0.000352294
0.00139231
0.000345468
0.00140511
0.000338261
0.0014176
0.000330661
0.00142976
0.000322654
0.00144157
0.000314227
0.001453
0.000305365
0.00146405
0.000296054
0.00147467
0.000286287
0.00148488
0.000276055
0.00149465
0.000265349
0.00150396
0.000254162
0.0015128
0.000242489
0.00152114
0.000230314
0.00152897
0.000217631
0.00153628
0.000204435
0.00154306
0.000190722
0.00154934
0.000176489
0.00155508
0.000161718
0.00156024
0.0001464
0.00156483
0.000130534
0.00156883
0.00011412
0.00157224
9.71591e-05
0.00157506
7.96518e-05
0.00157729
6.16074e-05
0.00157894
4.30194e-05
0.00157997
2.38711e-05
0.00158037
4.16736e-06
0.00158013
-1.60709e-05
0.00157926
-3.68172e-05
0.00157774
-5.80752e-05
0.00157556
-7.98449e-05
0.00157269
-0.000102094
0.00156915
-0.000124795
0.00156493
-0.000147931
0.00156
-0.000171492
0.00155437
-0.000195426
0.00154807
-0.000219689
0.00154108
-0.000244267
0.00153342
-0.000269124
0.00152508
-0.000294219
0.00151606
-0.000319521
0.00150633
-0.000344976
0.00149599
-0.00037048
0.00148502
-0.000395981
0.00147346
-0.000421432
0.0014614
-0.00044673
0.0014489
-0.000471808
0.00143597
-0.000496635
0.00142263
-0.000521162
0.001409
-0.000545253
0.00139513
-0.000568841
0.00138106
-0.000591853
0.00136695
-0.000614161
0.00135291
-0.000635677
0.0013389
-0.000656412
-0.00067669
0.00132489
0.00119332
0.000392202
-0.00117791
0.00120865
0.000389343
0.00122389
0.000386219
0.00123902
0.00038284
0.001254
0.000379197
0.00126882
0.000375276
0.00128346
0.000371062
0.00129789
0.000366539
0.00131212
0.000361698
0.00132614
0.00035653
0.00133993
0.000351029
0.00135348
0.000345186
0.00136678
0.000338992
0.00137982
0.000332435
0.00139257
0.000325505
0.00140504
0.000318196
0.0014172
0.000310496
0.00142903
0.000302395
0.00144051
0.000293879
0.00145163
0.000284938
0.00146236
0.000275559
0.00147268
0.000265732
0.00148258
0.000255448
0.00149205
0.000244698
0.00150106
0.000233476
0.00150961
0.00022177
0.00151767
0.000209571
0.00152523
0.000196873
0.00153228
0.00018367
0.00153881
0.000169953
0.00154482
0.000155717
0.00155026
0.000140951
0.00155515
0.00012565
0.00155946
0.000109812
0.00156318
9.3436e-05
0.00156631
7.6522e-05
0.00156885
5.90709e-05
0.00157078
4.10813e-05
0.0015721
2.25496e-05
0.0015728
3.47609e-06
0.00157285
-1.61248e-05
0.00157227
-3.62339e-05
0.00157104
-5.68443e-05
0.00156914
-7.79477e-05
0.00156657
-9.95257e-05
0.00156333
-0.000121557
0.00155942
-0.000144019
0.00155482
-0.000166895
0.00154955
-0.00019015
0.00154361
-0.00021375
0.00153701
-0.000237667
0.00152975
-0.00026187
0.00152185
-0.00028632
0.00151331
-0.000310976
0.00150413
-0.000335791
0.00149434
-0.000360696
0.00148399
-0.000385631
0.0014731
-0.000410543
0.00146173
-0.000435358
0.00144994
-0.000460013
0.00143776
-0.000484457
0.00142523
-0.000508632
0.00141242
-0.000532447
0.0013994
-0.000555822
0.00138623
-0.000578685
0.00137302
-0.000600942
0.00135984
-0.000622498
0.00134668
-0.00064325
-0.00066351
0.0013335
0.00118256
0.00037679
-0.00116715
0.00119783
0.000374073
0.00121297
0.000371079
0.00122799
0.000367824
0.00124288
0.00036431
0.00125762
0.000360532
0.0012722
0.000356479
0.0012866
0.00035214
0.0013008
0.000347502
0.00131478
0.000342552
0.00132852
0.000337281
0.00134203
0.000331678
0.00135529
0.000325735
0.00136828
0.000319442
0.001381
0.000312791
0.00139342
0.000305771
0.00140554
0.000298373
0.00141735
0.000290588
0.00142883
0.000282404
0.00143995
0.000273812
0.00145071
0.000264801
0.00146108
0.00025536
0.00147105
0.00024548
0.0014806
0.00023515
0.00148971
0.000224363
0.00149837
0.000213108
0.00150657
0.000201375
0.00151428
0.000189158
0.0015215
0.00017645
0.00152821
0.000163241
0.0015344
0.000149526
0.00154006
0.000135296
0.00154517
0.000120545
0.00154971
0.000105269
0.00155368
8.94667e-05
0.00155706
7.31354e-05
0.00155986
5.62744e-05
0.00156206
3.8883e-05
0.00156365
2.096e-05
0.00156462
2.50572e-06
0.00156496
-1.64664e-05
0.00156467
-3.59408e-05
0.00156373
-5.59091e-05
0.00156215
-7.63617e-05
0.0015599
-9.72843e-05
0.00155701
-0.000118658
0.00155345
-0.000140464
0.00154924
-0.000162681
0.00154437
-0.000185282
0.00153886
-0.000208237
0.0015327
-0.000231517
0.00152593
-0.000255091
0.00151853
-0.000278923
0.00151052
-0.000302972
0.00150193
-0.000327195
0.00149277
-0.000351537
0.00148308
-0.000375942
0.00147289
-0.000400356
0.00146226
-0.000424721
0.00145122
-0.000448975
0.00143982
-0.000473061
0.00142811
-0.000496922
0.00141615
-0.000520482
0.00140399
-0.000543665
0.0013917
-0.000566399
0.00137937
-0.000588604
0.00136706
-0.000610195
0.00135484
-0.00063103
-0.000651667
0.001343
0.00117227
0.000361262
-0.00115674
0.00118762
0.000358724
0.00120279
0.000355905
0.0012178
0.000352819
0.00123264
0.000349468
0.00124732
0.00034585
0.00126184
0.000341962
0.00127618
0.000337798
0.00129033
0.000333349
0.00130428
0.000328606
0.001318
0.000323558
0.00133149
0.000318193
0.00134472
0.000312502
0.00135769
0.000306474
0.00137038
0.0003001
0.00138278
0.00029337
0.00139488
0.000286276
0.00140666
0.000278806
0.00141811
0.000270951
0.00142922
0.000262702
0.00143998
0.000254049
0.00145035
0.000244981
0.00146034
0.000235491
0.00146993
0.000225566
0.00147909
0.000215199
0.00148782
0.00020438
0.00149609
0.000193099
0.0015039
0.000181349
0.00151123
0.00016912
0.00151807
0.000156406
0.0015244
0.000143198
0.0015302
0.000129489
0.00153547
0.000115273
0.0015402
0.000100546
0.00154436
8.53024e-05
0.00154796
6.95407e-05
0.00155097
5.32583e-05
0.0015534
3.6454e-05
0.00155523
1.91271e-05
0.00155646
1.27762e-06
0.00155708
-1.70801e-05
0.00155707
-3.5934e-05
0.00155644
-5.52762e-05
0.00155517
-7.50975e-05
0.00155327
-9.53851e-05
0.00155074
-0.000116123
0.00154757
-0.000137294
0.00154376
-0.000158877
0.00153933
-0.000180849
0.00153428
-0.000203184
0.00152862
-0.000225853
0.00152235
-0.000248827
0.0015155
-0.000272071
0.00150808
-0.000295548
0.0015001
-0.000319216
0.00149159
-0.000343029
0.00148258
-0.000366936
0.00147311
-0.000390886
0.00146322
-0.000414826
0.00145294
-0.000438699
0.00144233
-0.000462449
0.00143142
-0.000486017
0.00142028
-0.000509337
0.00140895
-0.000532339
0.0013975
-0.000554951
0.001386
-0.000577103
0.00137452
-0.000598715
0.00136314
-0.000619647
-0.000640592
0.00135207
0.00116229
0.000345622
-0.00114665
0.00117776
0.000343252
0.00119305
0.000340617
0.00120815
0.000337722
0.00122305
0.000334564
0.00123776
0.00033114
0.00125228
0.000327445
0.0012666
0.000323474
0.00128073
0.000319224
0.00129465
0.000314688
0.00130834
0.000309859
0.00132181
0.000304727
0.00133503
0.000299282
0.00134799
0.000293515
0.00136067
0.000287416
0.00137307
0.000280975
0.00138516
0.000274183
0.00139694
0.000267028
0.00140839
0.000259502
0.00141949
0.000251595
0.00143025
0.000243297
0.00144063
0.000234599
0.00145063
0.000225491
0.00146023
0.000215963
0.00146942
0.000206007
0.00147819
0.000195613
0.00148652
0.000184773
0.00149439
0.000173476
0.00150179
0.000161715
0.00150872
0.000149481
0.00151515
0.000136768
0.00152107
0.000123567
0.00152647
0.000109871
0.00153134
9.5676e-05
0.00153567
8.09763e-05
0.00153944
6.57683e-05
0.00154265
5.00489e-05
0.00154529
3.38163e-05
0.00154735
1.70692e-05
0.00154882
-1.92835e-07
0.00154969
-1.79544e-05
0.00154996
-3.62064e-05
0.00154963
-5.49425e-05
0.00154869
-7.41537e-05
0.00154713
-9.38292e-05
0.00154496
-0.000113955
0.00154218
-0.000134515
0.0015388
-0.000155491
0.00153481
-0.000176861
0.00153023
-0.000198602
0.00152506
-0.000220688
0.00151932
-0.000243089
0.00151303
-0.000265774
0.00150619
-0.000288709
0.00149883
-0.000311854
0.00149096
-0.000335168
0.00148263
-0.000358604
0.00147386
-0.000382115
0.00146469
-0.000405652
0.00145515
-0.000429161
0.00144529
-0.000452589
0.00143515
-0.000475879
0.00142478
-0.000498969
0.00141424
-0.000521796
0.00140358
-0.000544291
0.00139287
-0.000566386
0.00138216
-0.000588007
0.00137152
-0.000609014
-0.000630016
0.00136095
0.00115274
0.000329944
-0.00113706
0.00116828
0.000327712
0.00118366
0.000325233
0.00119887
0.000322515
0.00121389
0.00031955
0.0012287
0.000316329
0.0012433
0.000312845
0.00125768
0.000309091
0.00127184
0.000305061
0.00128578
0.00030075
0.00129949
0.000296151
0.00131296
0.000291257
0.00132618
0.000286061
0.00133914
0.000280554
0.00135183
0.000274728
0.00136423
0.000268573
0.00137633
0.00026208
0.00138812
0.000255239
0.00139959
0.000248039
0.00141071
0.000240472
0.00142148
0.000232528
0.00143188
0.000224196
0.0014419
0.000215468
0.00145154
0.000206333
0.00146076
0.000196783
0.00146957
0.000186808
0.00147794
0.000176399
0.00148587
0.000165548
0.00149334
0.000154245
0.00150034
0.000142482
0.00150685
0.000130251
0.00151288
0.000117545
0.00151839
0.000104356
0.00152339
9.06789e-05
0.00152786
7.65076e-05
0.00153179
6.18376e-05
0.00153517
4.66651e-05
0.001538
3.09875e-05
0.00154027
1.48029e-05
0.00154196
-1.89036e-06
0.00154308
-1.90745e-05
0.00154362
-3.6745e-05
0.00154358
-5.48958e-05
0.00154294
-7.35195e-05
0.00154172
-9.26063e-05
0.00153991
-0.000112144
0.00153751
-0.000132119
0.00153453
-0.000152513
0.00153098
-0.000173308
0.00152686
-0.000194481
0.00152218
-0.000216009
0.00151696
-0.000237865
0.0015112
-0.000260019
0.00150493
-0.000282438
0.00149816
-0.000305087
0.00149092
-0.000327926
0.00148323
-0.000350915
0.00147512
-0.000374008
0.00146663
-0.000397159
0.00145779
-0.00042032
0.00144864
-0.000443438
0.00143922
-0.000466461
0.00142958
-0.000489332
0.00141978
-0.000511991
0.00140986
-0.000534375
0.00139989
-0.000556414
0.00138993
-0.000578052
0.00138002
-0.000599095
-0.000620376
0.00137037
0.00114384
0.000314285
-0.00112818
0.00115938
0.00031217
0.00117479
0.000309824
0.00119005
0.000307255
0.00120514
0.000304459
0.00122004
0.000301426
0.00123474
0.000298145
0.00124922
0.000294608
0.00126348
0.000290806
0.0012775
0.000286731
0.00129127
0.000282376
0.0013048
0.000277734
0.00131806
0.000272797
0.00133105
0.000267559
0.00134377
0.000262011
0.0013562
0.000256144
0.00136833
0.000249951
0.00138015
0.000243422
0.00139164
0.000236547
0.00140279
0.000229318
0.0014136
0.000221724
0.00142404
0.000213756
0.0014341
0.000205405
0.00144377
0.00019666
0.00145304
0.000187512
0.0014619
0.000177952
0.00147033
0.00016797
0.00147832
0.000157557
0.00148586
0.000146705
0.00149294
0.000135405
0.00149954
0.000123648
0.00150566
0.000111427
0.00151128
9.87339e-05
0.0015164
8.55623e-05
0.001521
7.19061e-05
0.00152508
5.77599e-05
0.00152862
4.31193e-05
0.00153163
2.79808e-05
0.00153409
1.23419e-05
0.001536
-3.80024e-06
0.00153735
-2.04256e-05
0.00153814
-3.75342e-05
0.00153836
-5.51205e-05
0.00153802
-7.31783e-05
0.00153712
-9.16992e-05
0.00153564
-0.000110673
0.00153361
-0.000130086
0.00153102
-0.000149923
0.00152788
-0.000170167
0.0015242
-0.000190798
0.00151998
-0.000211793
0.00151524
-0.000233128
0.00151
-0.000254774
0.00150426
-0.000276702
0.00149806
-0.000298878
0.0014914
-0.000321266
0.00148431
-0.000343827
0.00147682
-0.000366521
0.00146896
-0.000389303
0.00146077
-0.000412129
0.00145229
-0.00043495
0.00144354
-0.000457718
0.00143459
-0.000480379
0.00142548
-0.00050288
0.00141627
-0.000525164
0.00140701
-0.000547163
0.00139781
-0.000568851
0.00138862
-0.000589898
-0.000611375
0.00137962
0.00113572
0.000298659
-0.0011201
0.00115124
0.000296657
0.00116663
0.000294434
0.00118188
0.000292001
0.00119699
0.000289354
0.00121193
0.000286486
0.00122668
0.000283388
0.00124124
0.000280051
0.00125558
0.000276464
0.00126969
0.00027262
0.00128356
0.000268509
0.00129717
0.000264122
0.00131052
0.000259451
0.00132359
0.000254488
0.00133638
0.000249225
0.00134887
0.000243654
0.00136105
0.000237765
0.00137292
0.000231552
0.00138446
0.000225005
0.00139567
0.000218114
0.00140652
0.000210871
0.00141701
0.000203265
0.00142713
0.000195288
0.00143686
0.00018693
0.00144619
0.000178182
0.00145511
0.000169032
0.0014636
0.000159473
0.00147166
0.000149495
0.00147928
0.000139089
0.00148644
0.000128245
0.00149313
0.000116955
0.00149935
0.00010521
0.00150508
9.30039e-05
0.00151032
8.0328e-05
0.00151505
6.71758e-05
0.00151926
5.35414e-05
0.00152296
3.94196e-05
0.00152614
2.4806e-05
0.00152878
9.69749e-06
0.00153089
-5.90877e-06
0.00153246
-2.19925e-05
0.00153348
-3.85572e-05
0.00153396
-5.55982e-05
0.00153389
-7.31103e-05
0.00153328
-9.10864e-05
0.00153212
-0.000109517
0.00153043
-0.000128391
0.0015282
-0.000147694
0.00152544
-0.000167411
0.00152217
-0.000187522
0.00151838
-0.000208008
0.0015141
-0.000228845
0.00150933
-0.000250007
0.00150409
-0.000271465
0.00149841
-0.00029319
0.00149229
-0.000315146
0.00148576
-0.0003373
0.00147885
-0.000359611
0.00147159
-0.000382041
0.00146401
-0.000404547
0.00145614
-0.000427085
0.00144803
-0.000449609
0.00143973
-0.000472072
0.00143127
-0.000494426
0.00142273
-0.000516621
0.00141416
-0.000538599
0.00140567
-0.000560361
0.00139732
-0.000581542
-0.000603608
0.00138955
0.00112845
0.000283053
-0.00111284
0.00114394
0.000281167
0.00115931
0.000279068
0.00117454
0.000276769
0.00118963
0.000274266
0.00120456
0.000271554
0.00121932
0.000268625
0.0012339
0.000265471
0.00124828
0.000262084
0.00126245
0.000258454
0.00127638
0.000254574
0.00129007
0.000250432
0.0013035
0.000246021
0.00131666
0.00024133
0.00132953
0.000236352
0.00134211
0.000231078
0.00135438
0.000225498
0.00136632
0.000219604
0.00137794
0.000213387
0.00138922
0.000206837
0.00140014
0.000199946
0.0014107
0.000192705
0.00142089
0.000185103
0.00143069
0.000177131
0.00144009
0.00016878
0.00144908
0.00016004
0.00145766
0.000150901
0.0014658
0.000141354
0.0014735
0.000131388
0.00148075
0.000120996
0.00148753
0.000110167
0.00149385
9.88934e-05
0.00149969
8.71662e-05
0.00150504
7.49777e-05
0.00150989
6.23205e-05
0.00151425
4.91878e-05
0.00151809
3.55736e-05
0.00152143
2.14729e-05
0.00152424
6.88146e-06
0.00152654
-8.20165e-06
0.0015283
-2.37595e-05
0.00152954
-3.97965e-05
0.00153025
-5.63095e-05
0.00153044
-7.32941e-05
0.0015301
-9.07446e-05
0.00152923
-0.000108653
0.00152785
-0.000127008
0.00152595
-0.000145798
0.00152355
-0.000165009
0.00152065
-0.000184623
0.00151726
-0.000204621
0.0015134
-0.000224982
0.00150908
-0.000245681
0.0015043
-0.000266692
0.0014991
-0.000287986
0.00149348
-0.000309532
0.00148748
-0.000331297
0.00148112
-0.000353245
0.00147441
-0.00037534
0.00146741
-0.000397543
0.00146014
-0.000419812
0.00145264
-0.000442108
0.00144495
-0.000464386
0.00143713
-0.000486605
0.00142923
-0.000508718
0.00142131
-0.000530683
0.00141345
-0.000552496
0.00140578
-0.000573871
-0.000596659
0.00139883
0.00112202
0.000267453
-0.00110642
0.0011375
0.000265686
0.00115286
0.000263713
0.00116808
0.000261549
0.00118315
0.000259192
0.00119807
0.000256636
0.00121282
0.000253874
0.00122739
0.000250898
0.00124178
0.000247701
0.00125596
0.000244276
0.00126992
0.000240613
0.00128364
0.000236704
0.00129713
0.00023254
0.00131034
0.000228112
0.00132329
0.000223411
0.00133594
0.000218427
0.00134828
0.000213151
0.00136031
0.000207573
0.00137202
0.000201685
0.00138338
0.000195476
0.00139439
0.000188938
0.00140503
0.000182061
0.0014153
0.000174834
0.00142518
0.000167249
0.00143466
0.000159296
0.00144374
0.000150964
0.0014524
0.000142244
0.00146063
0.000133126
0.00146841
0.000123599
0.00147575
0.000113655
0.00148264
0.000103284
0.00148906
9.2476e-05
0.001495
8.12226e-05
0.00150046
6.95152e-05
0.00150544
5.73456e-05
0.00150992
4.47065e-05
0.0015139
3.15909e-05
0.00151738
1.79929e-05
0.00152035
3.90733e-06
0.00152282
-1.06639e-05
0.00152477
-2.57095e-05
0.0015262
-4.12332e-05
0.00152713
-5.72338e-05
0.00152754
-7.37077e-05
0.00152745
-9.06502e-05
0.00152685
-0.000108054
0.00152575
-0.000125911
0.00152416
-0.000144208
0.00152209
-0.000162934
0.00151953
-0.000182071
0.00151652
-0.000201603
0.00151304
-0.00022151
0.00150913
-0.000241768
0.00150479
-0.000262353
0.00150004
-0.000283238
0.00149491
-0.000304395
0.0014894
-0.000325793
0.00148356
-0.000347398
0.00147739
-0.000369178
0.00147095
-0.000391096
0.00146425
-0.000413116
0.00145734
-0.0004352
0.00145027
-0.000457309
0.00144307
-0.000479406
0.0014358
-0.000501448
0.00142851
-0.000523398
0.00142124
-0.000545229
0.00141406
-0.000566683
-0.000589444
0.00140684
0.00111645
0.000251849
-0.00110084
0.00113193
0.0002502
0.00114729
0.000248355
0.00116251
0.000246328
0.00117759
0.000244119
0.0011925
0.00024172
0.00120725
0.000239126
0.00122182
0.000236329
0.0012362
0.000233322
0.00125037
0.000230098
0.00126434
0.000226649
0.00127808
0.000222966
0.00129157
0.000219042
0.00130482
0.000214867
0.0013178
0.000210433
0.00133049
0.000205731
0.00134289
0.00020075
0.00135498
0.000195482
0.00136675
0.000189917
0.00137818
0.000184044
0.00138927
0.000177855
0.00139999
0.000171339
0.00141034
0.000164486
0.0014203
0.000157286
0.00142987
0.000149728
0.00143903
0.000141804
0.00144777
0.000133501
0.00145609
0.00012481
0.00146397
0.000115721
0.0014714
0.000106223
0.00147837
9.63068e-05
0.00148489
8.59616e-05
0.00149093
7.51781e-05
0.0014965
6.39471e-05
0.00150159
5.22597e-05
0.00150619
4.01076e-05
0.00151029
2.74831e-05
0.00151391
1.43795e-05
0.00151702
7.90186e-07
0.00151964
-1.32788e-05
0.00152175
-2.78239e-05
0.00152337
-4.28475e-05
0.00152448
-5.83499e-05
0.00152511
-7.43287e-05
0.00152524
-9.07799e-05
0.00152488
-0.000107698
0.00152404
-0.000125074
0.00152273
-0.000142899
0.00152096
-0.00016116
0.00151873
-0.000179843
0.00151606
-0.000198931
0.00151295
-0.000218405
0.00150943
-0.000238245
0.0015055
-0.000258428
0.00150119
-0.000278928
0.00149652
-0.000299719
0.0014915
-0.000320772
0.00148616
-0.000342058
0.00148052
-0.000363544
0.00147462
-0.000385199
0.0014685
-0.000406988
0.00146217
-0.000428878
0.0014557
-0.000450834
0.00144911
-0.000472821
0.00144247
-0.000494803
0.00143582
-0.000516751
0.00142924
-0.000538648
0.00142276
-0.000560199
-0.00058315
0.00141646
0.00111173
0.000236228
-0.00109611
0.00112723
0.000234698
0.00114261
0.000232981
0.00115784
0.000231092
0.00117293
0.000229031
0.00118786
0.000226791
0.00120262
0.000224367
0.0012172
0.00022175
0.00123159
0.000218935
0.00124577
0.000215913
0.00125974
0.000212678
0.00127349
0.000209221
0.00128699
0.000205535
0.00130025
0.000201611
0.00131324
0.00019744
0.00132596
0.000193014
0.00133839
0.000188323
0.00135051
0.000183358
0.00136232
0.000178109
0.0013738
0.000172567
0.00138493
0.000166721
0.00139571
0.000160561
0.00140612
0.000154077
0.00141615
0.000147258
0.00142578
0.000140093
0.00143501
0.000132573
0.00144383
0.000124685
0.00145222
0.00011642
0.00146017
0.000107765
0.00146769
9.87115e-05
0.00147474
8.92471e-05
0.00148134
7.93617e-05
0.00148748
6.90448e-05
0.00149314
5.82863e-05
0.00149832
4.70765e-05
0.00150302
3.54061e-05
0.00150724
2.32665e-05
0.00151097
1.065e-05
0.00151421
-2.45133e-06
0.00151696
-1.60271e-05
0.00151922
-3.00823e-05
0.00152099
-4.46183e-05
0.00152227
-5.96363e-05
0.00152308
-7.5135e-05
0.00152341
-9.11116e-05
0.00152328
-0.000107561
0.00152268
-0.000124477
0.00152163
-0.000141849
0.00152014
-0.000159667
0.00151821
-0.000177918
0.00151587
-0.000196585
0.00151311
-0.000215652
0.00150997
-0.000235099
0.00150644
-0.000254904
0.00150256
-0.000275044
0.00149833
-0.000295494
0.00149379
-0.000316227
0.00148895
-0.000337217
0.00148384
-0.000358433
0.00147848
-0.000379845
0.00147292
-0.000401423
0.00146718
-0.000423135
0.00146129
-0.000444951
0.00145531
-0.000466841
0.00144928
-0.000488775
0.00144327
-0.000510737
0.00143734
-0.000532717
0.00143173
-0.000554592
-0.000577369
0.00142595
0.00110789
0.000220578
-0.00109224
0.00112342
0.000219169
0.00113882
0.00021758
0.00115408
0.00021583
0.0011692
0.000213918
0.00118415
0.000211837
0.00119894
0.000209582
0.00121354
0.000207147
0.00122795
0.000204524
0.00124216
0.000201706
0.00125615
0.000198687
0.00126991
0.000195457
0.00128344
0.00019201
0.00129671
0.000188337
0.00130972
0.000184429
0.00132246
0.000180278
0.00133491
0.000175876
0.00134705
0.000171212
0.00135888
0.000166277
0.00137039
0.000161062
0.00138155
0.000155556
0.00139236
0.000149749
0.00140281
0.00014363
0.00141288
0.000137188
0.00142256
0.000130414
0.00143184
0.000123294
0.00144071
0.000115819
0.00144915
0.000107975
0.00145716
9.97534e-05
0.00146473
9.11407e-05
0.00147185
8.21258e-05
0.00147852
7.26973e-05
0.00148472
6.28438e-05
0.00149045
5.25543e-05
0.00149571
4.18178e-05
0.00150049
3.06242e-05
0.0015048
1.89637e-05
0.00150862
6.82731e-06
0.00151196
-5.79238e-06
0.00151482
-1.8885e-05
0.0015172
-3.24608e-05
0.0015191
-4.65216e-05
0.00152053
-6.10692e-05
0.0015215
-7.61035e-05
0.00152201
-9.16226e-05
0.00152207
-0.000107623
0.00152169
-0.000124098
0.00152088
-0.000141039
0.00151966
-0.000158438
0.00151802
-0.00017628
0.00151598
-0.000194552
0.00151357
-0.000213237
0.00151079
-0.000232317
0.00150766
-0.000251771
0.00150419
-0.000271577
0.00150041
-0.000291712
0.00149633
-0.000312152
0.00149198
-0.000332869
0.00148739
-0.000353837
0.00148257
-0.000375028
0.00147756
-0.000396412
0.00147239
-0.000417963
0.00146709
-0.000439654
0.00146171
-0.000461458
0.00145629
-0.000483358
0.00145089
-0.000505335
0.00144558
-0.000527409
0.00144033
-0.000549339
-0.00057267
0.00143563
0.00110495
0.000204891
-0.00108927
0.00112052
0.000203602
0.00113596
0.000202143
0.00115126
0.000200531
0.00116641
0.000198767
0.0011814
0.000196846
0.00119622
0.000194762
0.00121086
0.000192508
0.0012253
0.000190078
0.00123954
0.000187464
0.00125357
0.000184661
0.00126737
0.000181659
0.00128092
0.000178452
0.00129423
0.000175031
0.00130727
0.000171388
0.00132003
0.000167515
0.00133251
0.000163402
0.00134468
0.00015904
0.00135654
0.00015442
0.00136807
0.000149532
0.00137926
0.000144365
0.0013901
0.00013891
0.00140057
0.000133156
0.00141067
0.000127091
0.00142038
0.000120705
0.00142969
0.000113985
0.00143858
0.00010692
0.00144706
9.94985e-05
0.00145511
9.17072e-05
0.00146271
8.35342e-05
0.00146987
7.4967e-05
0.00147658
6.59934e-05
0.00148282
5.66009e-05
0.0014886
4.67773e-05
0.0014939
3.65106e-05
0.00149874
2.57895e-05
0.0015031
1.46027e-05
0.00150699
2.93975e-06
0.0015104
-9.20348e-06
0.00151334
-2.18237e-05
0.00151581
-3.49307e-05
0.00151781
-4.85287e-05
0.00151936
-6.26201e-05
0.00152047
-7.72061e-05
0.00152113
-9.22858e-05
0.00152136
-0.000107856
0.00152118
-0.000123912
0.00152059
-0.000140447
0.0015196
-0.00015745
0.00151823
-0.00017491
0.00151649
-0.000192813
0.00151439
-0.000211144
0.00151196
-0.000229884
0.0015092
-0.000249014
0.00150614
-0.000268514
0.00150279
-0.000288361
0.00149917
-0.000308531
0.0014953
-0.000329
0.00149121
-0.000349742
0.00148691
-0.000370733
0.00148244
-0.000391944
0.00147783
-0.000413353
0.00147311
-0.000434935
0.00146832
-0.000456668
0.0014635
-0.000478536
0.00145868
-0.000500508
0.00145384
-0.000522571
0.00144885
-0.000544352
-0.000567309
0.00144349
0.00110297
0.000189168
-0.00108725
0.00111857
0.000187996
0.00113405
0.000186663
0.0011494
0.000185189
0.00116459
0.000183573
0.00117962
0.000181811
0.00119449
0.000179896
0.00120917
0.000177824
0.00122367
0.000175586
0.00123795
0.000173177
0.00125202
0.00017059
0.00126587
0.000167817
0.00127947
0.000164851
0.00129282
0.000161683
0.0013059
0.000158306
0.0013187
0.000154711
0.00133122
0.000150889
0.00134343
0.00014683
0.00135532
0.000142527
0.00136688
0.000137968
0.0013781
0.000133143
0.00138897
0.000128042
0.00139947
0.000122655
0.0014096
0.000116968
0.00141933
0.000110972
0.00142866
0.000104654
0.00143758
9.80014e-05
0.00144608
9.10018e-05
0.00145414
8.36424e-05
0.00146177
7.591e-05
0.00146894
6.77912e-05
0.00147566
5.92726e-05
0.00148192
5.03408e-05
0.00148772
4.09823e-05
0.00149304
3.11838e-05
0.0014979
2.09324e-05
0.00150229
1.02156e-05
0.00150621
-9.7891e-07
0.00150965
-1.26507e-05
0.00151264
-2.48074e-05
0.00151516
-3.74564e-05
0.00151724
-5.06039e-05
0.00151887
-6.42537e-05
0.00152007
-7.84081e-05
0.00152086
-9.30672e-05
0.00152123
-0.000108229
0.0015212
-0.000123889
0.0015208
-0.000140041
0.00152002
-0.000156674
0.00151889
-0.000173779
0.00151742
-0.000191342
0.00151562
-0.000209346
0.00151352
-0.000227775
0.00151111
-0.000246611
0.00150843
-0.000265832
0.00150549
-0.000285417
0.0015023
-0.000305345
0.00149889
-0.000325592
0.00149528
-0.000346135
0.0014915
-0.000366949
0.00148757
-0.000388011
0.00148351
-0.000409293
0.00147935
-0.000430773
0.00147509
-0.000452416
0.00147075
-0.000474188
0.00146627
-0.00049603
0.0014616
-0.000517903
0.00145681
-0.000539565
-0.000562604
0.00145211
0.00110203
0.00017341
-0.00108627
0.00111767
0.000172353
0.00113319
0.000171144
0.00114858
0.000169804
0.00116382
0.000168334
0.0011789
0.000166728
0.00119382
0.000164982
0.00120855
0.000163089
0.00122309
0.000161043
0.00123743
0.000158838
0.00125156
0.000156466
0.00126545
0.000153922
0.00127911
0.000151196
0.00129251
0.000148282
0.00130564
0.000145172
0.0013185
0.000141856
0.00133106
0.000138327
0.00134331
0.000134574
0.00135525
0.000130589
0.00136686
0.000126362
0.00137812
0.000121882
0.00138902
0.000117138
0.00139956
0.00011212
0.00140971
0.000106816
0.00141947
0.000101214
0.00142882
9.53012e-05
0.00143776
8.90649e-05
0.00144627
8.24917e-05
0.00145434
7.55681e-05
0.00146197
6.828e-05
0.00146915
6.06131e-05
0.00147587
5.25528e-05
0.00148213
4.40843e-05
0.00148792