/*--------------------------------*- C++ -*----------------------------------*\
| =========                 |                                                 |
| \\      /  F ield         | OpenFOAM: The Open Source CFD Toolbox           |
|  \\    /   O peration     | Version:  2312                                  |
|   \\  /    A nd           | Website:  www.openfoam.com                      |
|    \\/     M anipulation  |                                                 |
\*---------------------------------------------------------------------------*/
FoamFile
{
    version     2.0;
    format      ascii;
    arch        "LSB;label=32;scalar=64";
    class       volVectorField;
    location    "1500";
    object      U;
}
// * * * * * * * * * * * * * * * * * * * * * * * * * * * * * * * * * * * * * //

dimensions      [0 1 -1 0 0 0 0];

internalField   nonuniform List<vector> 
76025
(
(0.0408061 -0.00885552 0)
(0.0410501 -0.00882871 1.63052e-22)
(0.0412926 -0.00879682 0)
(0.0415328 -0.00875809 0)
(0.0417772 -0.00871526 -1.40288e-22)
(0.0420275 -0.0086505 -8.43807e-23)
(0.0422824 -0.00859126 1.7399e-23)
(0.0425418 -0.00851359 3.51873e-23)
(0.0427973 -0.00843441 7.9334e-23)
(0.0430493 -0.00834652 -1.12986e-22)
(0.0433021 -0.0082493 3.16622e-23)
(0.043558 -0.00813973 -5.32297e-22)
(0.0438161 -0.00802313 7.10847e-22)
(0.0440702 -0.0078945 0)
(0.044319 -0.00774941 -2.80571e-22)
(0.044565 -0.00760653 0)
(0.0448072 -0.00744105 0)
(0.0450494 -0.00727437 0)
(0.0452873 -0.00709052 -3.69775e-22)
(0.0455197 -0.00690532 4.4812e-22)
(0.0457466 -0.0067009 4.80814e-22)
(0.0459685 -0.006489 1.47805e-21)
(0.0461801 -0.0062674 -1.01418e-21)
(0.0463835 -0.00603188 -1.72381e-21)
(0.0465808 -0.00578858 -6.07108e-23)
(0.0467742 -0.00553701 -7.1147e-22)
(0.0469588 -0.00526441 1.99063e-21)
(0.0471379 -0.00498916 -2.01951e-21)
(0.047309 -0.0046971 6.96923e-22)
(0.0474699 -0.00438771 -7.29701e-22)
(0.047621 -0.0040888 -7.67458e-22)
(0.0477722 -0.00377049 1.68525e-21)
(0.0479134 -0.00343422 -2.57542e-21)
(0.0480473 -0.00309792 -4.65125e-22)
(0.0481689 -0.00274613 2.36075e-21)
(0.0482812 -0.0023896 1.62231e-23)
(0.0483883 -0.00201281 -4.89863e-22)
(0.0484909 -0.00162602 2.71951e-22)
(0.0485851 -0.00124032 1.71859e-23)
(0.0486681 -0.000837924 -4.22864e-22)
(0.048739 -0.000433207 2.86312e-22)
(0.048806 -7.20426e-06 -1.42086e-22)
(0.0488707 0.000437322 2.87058e-22)
(0.0489221 0.000886694 -5.81239e-22)
(0.0489573 0.00134898 -6.07921e-22)
(0.048983 0.00182072 1.15599e-21)
(0.0490051 0.00231013 1.23131e-21)
(0.0490102 0.00280621 -3.72672e-21)
(0.0489941 0.00331684 2.39598e-21)
(0.0489677 0.00384017 -5.59298e-23)
(0.0489264 0.00437628 -6.21631e-21)
(0.0488666 0.00493012 -2.42133e-21)
(0.0487926 0.00549907 2.56976e-21)
(0.0486976 0.0060882 0)
(0.0485689 0.00668075 -2.4405e-21)
(0.048411 0.00728849 -2.58754e-21)
(0.0482345 0.00790819 7.67945e-23)
(0.0480211 0.00855178 -2.51256e-21)
(0.0477771 0.00922228 2.54407e-21)
(0.047499 0.00992493 -7.45048e-21)
(0.0472235 0.0105916 -5.26235e-21)
(0.0468912 0.0113193 -3.31062e-22)
(0.0465271 0.0120654 0)
(0.0461282 0.0128274 1.30221e-20)
(0.045688 0.0136053 -4.88177e-21)
(0.0452118 0.0143911 2.6244e-21)
(0.0447099 0.0152282 -5.13557e-21)
(0.0441586 0.016096 5.56948e-21)
(0.0436951 0.0169619 1.0852e-20)
(0.0408304 -0.00926861 1.81409e-22)
(0.0410859 -0.00924122 3.89564e-22)
(0.0413416 -0.00920599 -5.55466e-22)
(0.041598 -0.00916382 0)
(0.0418538 -0.00911402 1.74887e-22)
(0.0421144 -0.00905444 -1.46496e-22)
(0.0423746 -0.0089862 3.25696e-23)
(0.0426395 -0.00890839 0)
(0.0429072 -0.00882172 3.43912e-23)
(0.0431747 -0.00872643 1.17006e-22)
(0.0434417 -0.008622 -1.51841e-22)
(0.043709 -0.00850761 3.92633e-23)
(0.0439761 -0.0083836 0)
(0.0442436 -0.00824889 0)
(0.0445103 -0.00810278 -6.92928e-22)
(0.044772 -0.00794726 1.68499e-21)
(0.0450326 -0.00777966 4.05168e-22)
(0.0452888 -0.0076025 -1.30782e-21)
(0.0455428 -0.00741386 8.67354e-22)
(0.0457912 -0.00721524 -4.61455e-22)
(0.0460369 -0.00700475 5.79257e-22)
(0.046277 -0.00678367 -1.07636e-21)
(0.0465105 -0.00655118 1.21237e-21)
(0.0467374 -0.00630669 -1.90009e-21)
(0.0469576 -0.00605106 1.28597e-21)
(0.0471712 -0.00578444 2.08717e-21)
(0.0473794 -0.0055066 -1.42806e-21)
(0.0475763 -0.00521774 0)
(0.0477664 -0.00491626 0)
(0.04795 -0.0046031 -8.68846e-22)
(0.0481256 -0.00428012 0)
(0.0482941 -0.00394617 -9.42652e-22)
(0.0484546 -0.00360142 9.60489e-22)
(0.0486036 -0.00324694 -1.47681e-21)
(0.0487436 -0.00288087 3.48427e-23)
(0.0488734 -0.00250328 -5.11164e-22)
(0.0489959 -0.00211114 0)
(0.0491112 -0.00171016 -1.14127e-21)
(0.0492167 -0.00130003 8.89187e-22)
(0.0493115 -0.000879404 -7.50271e-22)
(0.0493949 -0.000446242 4.63355e-22)
(0.0494685 1.31384e-06 -3.41958e-24)
(0.0495315 0.000456378 1.68971e-22)
(0.0495811 0.00091981 -1.57481e-22)
(0.0496169 0.00139485 1.3048e-21)
(0.0496397 0.00188433 -6.62855e-22)
(0.0496498 0.00238534 -6.91626e-22)
(0.0496437 0.00289474 1.26413e-21)
(0.0496196 0.00342036 3.93175e-21)
(0.0495796 0.00396191 -2.92556e-23)
(0.0495226 0.0045162 3.9157e-21)
(0.0494463 0.00508597 -1.33026e-21)
(0.0493508 0.00566966 -3.92605e-21)
(0.0492345 0.00626367 2.6465e-21)
(0.0490939 0.00686733 0)
(0.048926 0.00749436 8.06013e-21)
(0.0487362 0.0081341 2.76551e-23)
(0.0485181 0.0087916 -2.6903e-21)
(0.0482721 0.00946618 -2.79867e-21)
(0.0480009 0.0101584 0)
(0.0477036 0.0108721 2.55928e-21)
(0.0473749 0.011605 8.08952e-21)
(0.0470144 0.0123537 0)
(0.0466235 0.0131207 -5.41969e-21)
(0.0461999 0.0139082 3.2061e-21)
(0.0457353 0.0147247 -5.69826e-21)
(0.0452421 0.0155729 2.85875e-21)
(0.044706 0.0164232 -5.63039e-21)
(0.0441872 0.0173274 -5.65777e-21)
(0.0408654 -0.00970979 -8.06544e-22)
(0.0411301 -0.00967959 4.99326e-22)
(0.0413968 -0.00964125 -8.28395e-23)
(0.0416673 -0.00959582 1.51269e-22)
(0.0419391 -0.00954191 -1.52589e-22)
(0.0422118 -0.00947936 1.62432e-22)
(0.0424849 -0.00940728 -2.3911e-22)
(0.0427595 -0.00932599 0)
(0.0430361 -0.00923504 3.68067e-23)
(0.0433146 -0.00913422 0)
(0.0435939 -0.00902338 2.33706e-22)
(0.0438732 -0.00890249 -2.30918e-22)
(0.0441519 -0.00877145 -1.54069e-21)
(0.0444299 -0.00862998 1.22713e-21)
(0.0447075 -0.00847774 -3.40949e-22)
(0.0449838 -0.00831421 -1.21398e-21)
(0.0452583 -0.00813978 4.22533e-22)
(0.0455299 -0.00795401 4.49124e-22)
(0.0457982 -0.00775743 1.59156e-21)
(0.0460625 -0.00754932 -1.05539e-21)
(0.0463224 -0.00733003 -6.09982e-22)
(0.0465773 -0.00709925 1.27157e-21)
(0.046827 -0.00685685 -5.89792e-22)
(0.0470711 -0.00660242 -7.20426e-22)
(0.0473092 -0.0063361 0)
(0.0475404 -0.00605815 7.94063e-22)
(0.0477642 -0.00576905 7.99676e-22)
(0.0479799 -0.00546815 -7.69482e-22)
(0.0481878 -0.00515508 0)
(0.0483881 -0.00483037 1.81862e-21)
(0.0485807 -0.00449383 -9.79823e-22)
(0.0487643 -0.00414677 -6.84386e-23)
(0.048938 -0.00378908 0)
(0.0491017 -0.00342012 5.11383e-22)
(0.0492554 -0.00303992 -1.63885e-21)
(0.0493988 -0.0026482 1.11867e-21)
(0.049532 -0.00224489 0)
(0.0496551 -0.0018309 9.05488e-22)
(0.0497678 -0.00140636 -9.41225e-22)
(0.0498693 -0.000971497 -1.56621e-22)
(0.0499585 -0.000525344 0)
(0.0500353 -6.77149e-05 -3.32559e-22)
(0.0500998 0.000400682 -1.68815e-22)
(0.0501512 0.000880661 1.59542e-22)
(0.0501884 0.00137299 -9.96312e-22)
(0.050211 0.00187805 -7.03675e-22)
(0.0502185 0.00239515 1.33546e-21)
(0.05021 0.00292432 -1.39053e-21)
(0.0501841 0.00346731 1.42579e-21)
(0.0501407 0.00402393 -1.38481e-21)
(0.0500797 0.00459337 -1.36142e-21)
(0.0499998 0.00517641 2.89438e-21)
(0.0499004 0.00577287 0)
(0.0497805 0.00638246 2.91795e-21)
(0.049638 0.00700616 6.79358e-23)
(0.0494713 0.00764656 -2.88057e-21)
(0.0492812 0.00830203 -2.88782e-21)
(0.0490661 0.00897404 5.77356e-21)
(0.0488247 0.00966415 -6.74081e-23)
(0.0485569 0.0103742 3.00599e-21)
(0.0482629 0.0111024 -6.04848e-21)
(0.0479411 0.0118478 -3.12132e-21)
(0.0475884 0.0126137 3.39666e-23)
(0.0472047 0.013401 -2.98329e-21)
(0.0467889 0.0142108 -2.82265e-21)
(0.0463367 0.0150429 -9.35948e-21)
(0.0458559 0.0159039 0)
(0.045324 0.0167733 -3.15483e-21)
(0.0448145 0.0177085 3.12495e-21)
(0.0409139 -0.0101801 0)
(0.041187 -0.010148 1.25767e-22)
(0.041463 -0.0101072 2.83511e-22)
(0.0417439 -0.0100587 -1.97786e-22)
(0.0420283 -0.0100015 1.39922e-22)
(0.0423147 -0.00993491 -2.10845e-22)
(0.0426023 -0.00985865 7.91249e-23)
(0.0428907 -0.00977277 -1.57683e-22)
(0.0431797 -0.00967702 -1.59288e-22)
(0.0434694 -0.00957112 -9.57053e-22)
(0.0437597 -0.00945477 9.96881e-22)
(0.0440505 -0.00932774 1.27762e-21)
(0.0443411 -0.00918991 -2.38677e-22)
(0.044631 -0.00904116 -1.51298e-21)
(0.0449199 -0.00888124 1.23853e-21)
(0.0452078 -0.00870992 -4.83395e-22)
(0.0454939 -0.00852721 5.22936e-22)
(0.0457779 -0.00833289 5.62232e-22)
(0.046059 -0.00812702 -1.72888e-21)
(0.0463366 -0.00790944 5.41958e-22)
(0.0466099 -0.00768012 6.20773e-22)
(0.0468785 -0.00743889 0)
(0.047142 -0.00718569 1.54483e-21)
(0.0473997 -0.00692041 -7.54103e-22)
(0.0476514 -0.00664305 -1.63306e-21)
(0.0478964 -0.00635372 -1.74631e-21)
(0.0481342 -0.0060524 3.46258e-21)
(0.0483644 -0.00573894 -1.8254e-21)
(0.0485866 -0.00541339 0)
(0.0488005 -0.00507586 -1.97566e-21)
(0.0490057 -0.00472669 -5.01739e-23)
(0.0492015 -0.00436622 2.07284e-21)
(0.0493873 -0.00399434 -1.1153e-21)
(0.0495629 -0.00361088 2.86507e-21)
(0.049728 -0.0032159 -5.5329e-22)
(0.0498821 -0.00280941 0)
(0.0500252 -0.00239143 0)
(0.050157 -0.0019621 3.34609e-22)
(0.0502772 -0.00152178 3.24314e-22)
(0.0503852 -0.00107064 1.77813e-22)
(0.0504804 -0.000608176 -5.66209e-24)
(0.0505623 -0.000133908 1.71973e-22)
(0.0506307 0.000352118 0)
(0.0506852 0.000849773 -2.10449e-23)
(0.0507249 0.00135918 0)
(0.0507492 0.00188059 6.91143e-22)
(0.0507577 0.00241412 1.06544e-23)
(0.0507498 0.00295978 -2.24389e-21)
(0.0507247 0.00351803 0)
(0.0506818 0.00408935 -1.49434e-21)
(0.050621 0.00467384 1.4821e-21)
(0.0505414 0.00527181 -2.91476e-21)
(0.0504422 0.00588349 0)
(0.0503226 0.00650901 -9.08915e-21)
(0.0501813 0.00714878 6.50432e-23)
(0.0500173 0.00780403 3.0383e-21)
(0.04983 0.00847535 3.04834e-21)
(0.0496187 0.0091634 0)
(0.0493824 0.00986924 0)
(0.0491206 0.0105937 -3.02888e-21)
(0.0488329 0.0113368 6.09396e-21)
(0.048518 0.012099 6.13662e-21)
(0.0481739 0.0128817 0)
(0.0477997 0.0136856 -6.62112e-21)
(0.0473948 0.014512 0)
(0.0469551 0.0153605 9.65631e-21)
(0.0464862 0.0162384 -3.28916e-21)
(0.0459645 0.0171263 -3.38329e-21)
(0.0454636 0.0180821 -3.62474e-21)
(0.0409692 -0.0106772 0)
(0.0412558 -0.0106443 0)
(0.0415433 -0.0106017 2.2347e-23)
(0.0418351 -0.0105508 1.08428e-22)
(0.0421306 -0.0104906 -1.77117e-22)
(0.0424291 -0.0104203 7.53399e-23)
(0.0427297 -0.0103398 0)
(0.043032 -0.010249 1.61048e-22)
(0.0433353 -0.0101478 0)
(0.043639 -0.0100361 5.78528e-22)
(0.0439427 -0.00991344 1.35221e-22)
(0.0442464 -0.00977973 -6.61415e-22)
(0.0445496 -0.00963471 0)
(0.0448521 -0.00947821 9.15559e-22)
(0.0451534 -0.00931007 -2.87036e-21)
(0.0454531 -0.00913016 2.02024e-21)
(0.0457509 -0.00893835 -2.77278e-21)
(0.0460463 -0.00873455 5.87095e-22)
(0.046339 -0.00851865 -6.72976e-22)
(0.0466283 -0.00829059 6.51711e-22)
(0.0469136 -0.00805029 7.2722e-22)
(0.0471944 -0.00779768 -2.27608e-21)
(0.04747 -0.00753272 -1.60317e-21)
(0.0477399 -0.00725538 0)
(0.0480035 -0.00696563 1.7937e-21)
(0.0482605 -0.00666351 9.57685e-22)
(0.0485103 -0.00634901 -2.7968e-21)
(0.0487523 -0.00602217 9.59848e-22)
(0.048986 -0.00568306 -2.10176e-21)
(0.0492111 -0.00533175 3.14587e-21)
(0.049427 -0.00496844 -1.15124e-21)
(0.0496334 -0.00459326 5.95426e-22)
(0.0498295 -0.00420625 0)
(0.0500151 -0.00380748 -5.95039e-22)
(0.0501897 -0.003397 -6.1459e-22)
(0.0503529 -0.00297491 0)
(0.0505044 -0.00254127 6.96667e-22)
(0.0506438 -0.00209625 -1.03978e-21)
(0.0507708 -0.00164008 7.09103e-22)
(0.0508851 -0.0011729 -3.69224e-22)
(0.0509861 -0.000694389 -6.39544e-24)
(0.0510731 -0.000204211 -2.90195e-22)
(0.051146 0.000297548 9.43996e-23)
(0.0512043 0.00081082 3.7258e-22)
(0.0512474 0.00133574 1.68102e-23)
(0.0512749 0.00187256 2.32192e-21)
(0.0512864 0.00242143 0)
(0.0512812 0.0029825 1.52466e-21)
(0.0512588 0.00355609 -3.46339e-23)
(0.0512187 0.00414264 -1.57126e-21)
(0.0511606 0.00474238 0)
(0.0510837 0.00535552 -1.60481e-21)
(0.0509875 0.00598239 1.59274e-21)
(0.0508711 0.00662333 3.13359e-21)
(0.0507338 0.00727884 0)
(0.0505746 0.00794977 -6.43043e-21)
(0.0503929 0.00863685 6.53086e-21)
(0.050188 0.00934075 -6.56662e-21)
(0.049959 0.0100623 -1.1277e-22)
(0.0497054 0.0108023 0)
(0.0494262 0.0115615 -3.36462e-21)
(0.0491205 0.0123402 3.27202e-21)
(0.0487868 0.0131397 3.61851e-21)
(0.0484237 0.0139607 6.6607e-21)
(0.0480304 0.0148048 -1.06167e-20)
(0.047603 0.0156712 7.00055e-21)
(0.047147 0.0165671 -3.51252e-21)
(0.0466378 0.0174751 3.78414e-21)
(0.0461553 0.0184519 1.05837e-20)
(0.041017 -0.0112018 -3.0539e-22)
(0.0413235 -0.0111681 1.89353e-22)
(0.0416289 -0.0111242 7.80381e-23)
(0.0419366 -0.0110713 0)
(0.0422466 -0.0110085 7.06646e-23)
(0.0425584 -0.0109348 0)
(0.0428723 -0.0108501 -4.15118e-22)
(0.043188 -0.0107545 -9.43186e-23)
(0.0435053 -0.0106478 8.07318e-22)
(0.0438235 -0.0105299 -3.48673e-22)
(0.0441419 -0.0104005 -3.42056e-22)
(0.0444601 -0.0102595 -4.4071e-22)
(0.0447776 -0.0101067 0)
(0.0450939 -0.0099419 0)
(0.0454088 -0.00976497 5.16233e-22)
(0.0457217 -0.00957576 5.58934e-22)
(0.0460323 -0.00937416 -1.30646e-21)
(0.0463402 -0.00916006 1.30403e-21)
(0.0466448 -0.0089334 1.4362e-21)
(0.0469458 -0.00869409 -1.5596e-21)
(0.0472426 -0.00844208 3.13183e-21)
(0.0475347 -0.00817734 1.24547e-23)
(0.0478215 -0.00789983 -1.79689e-21)
(0.0481025 -0.00760955 -9.6237e-22)
(0.0483772 -0.0073065 -1.96859e-21)
(0.048645 -0.00699072 1.97121e-21)
(0.0489054 -0.00666227 2.12883e-21)
(0.0491578 -0.00632122 -2.13373e-21)
(0.0494016 -0.00596764 0)
(0.0496365 -0.00560164 0)
(0.049862 -0.00522334 3.01452e-21)
(0.0500774 -0.0048329 7.61074e-23)
(0.0502825 -0.00443043 -1.26952e-21)
(0.0504765 -0.00401607 -1.34326e-21)
(0.0506592 -0.00358993 1.35165e-21)
(0.0508301 -0.00315213 0)
(0.0509888 -0.00270281 -7.03837e-22)
(0.051135 -0.00224212 -1.13891e-21)
(0.0512683 -0.00177021 7.60575e-22)
(0.0513885 -0.00128725 -1.17088e-23)
(0.0514949 -0.000792905 -6.31445e-23)
(0.051587 -0.000286928 2.96481e-22)
(0.0516647 0.000230651 2.09257e-22)
(0.0517275 0.000759847 4.11967e-22)
(0.0517749 0.00130076 -2.03628e-21)
(0.0518066 0.00185354 1.62108e-23)
(0.0518221 0.00241835 0)
(0.0518209 0.00299537 -1.71591e-21)
(0.0518026 0.00358487 5.04212e-21)
(0.0517668 0.00418715 -3.40323e-21)
(0.0517129 0.00480252 -1.70068e-21)
(0.0516406 0.00543127 -5.70283e-23)
(0.0515492 0.00607377 -1.67769e-21)
(0.0514381 0.00673049 -3.95572e-23)
(0.0513065 0.00740194 3.42024e-21)
(0.0511538 0.00808884 -3.55177e-21)
(0.0509793 0.0087919 -3.49377e-21)
(0.0507822 0.00951189 6.98615e-21)
(0.0505618 0.0102496 -7.25457e-23)
(0.0503173 0.0110058 3.55703e-21)
(0.0500478 0.0117813 -3.53771e-21)
(0.0497521 0.0125768 3.48966e-21)
(0.049429 0.0133933 -7.03422e-21)
(0.049077 0.0142316 -3.67614e-21)
(0.0486953 0.0150932 7.11107e-21)
(0.0482798 0.0159773 -3.97604e-21)
(0.0478363 0.0168911 -1.15706e-20)
(0.0473388 0.0178171 -3.63642e-21)
(0.0468742 0.0188091 0)
(0.0410512 -0.0117563 0)
(0.0413798 -0.0117217 4.9576e-24)
(0.041707 -0.0116764 -4.17894e-23)
(0.0420358 -0.0116216 0)
(0.0423654 -0.0115562 0)
(0.0426955 -0.0114793 2.11691e-22)
(0.0430262 -0.0113908 -7.84169e-22)
(0.0433578 -0.0112905 1.13923e-21)
(0.0436903 -0.0111785 -5.62827e-22)
(0.0440236 -0.0110544 3.5541e-22)
(0.0443572 -0.0109182 0)
(0.0446905 -0.0107697 4.49044e-22)
(0.0450232 -0.0106088 -5.56999e-22)
(0.0453547 -0.0104353 0)
(0.0456844 -0.0102491 0)
(0.0460119 -0.01005 6.75074e-22)
(0.0463367 -0.00983801 9.3631e-23)
(0.0466583 -0.009613 -1.46079e-21)
(0.0469763 -0.0093749 -1.56992e-21)
(0.0472901 -0.00912366 1.63959e-21)
(0.0475992 -0.00885924 8.50623e-22)
(0.0479032 -0.00858163 3.76589e-21)
(0.0482016 -0.00829082 4.71183e-23)
(0.0484938 -0.00798682 -1.09509e-21)
(0.0487793 -0.00766969 2.07406e-21)
(0.0490576 -0.00733947 -1.09736e-21)
(0.0493281 -0.00699626 2.24375e-21)
(0.0495903 -0.00664015 0)
(0.0498437 -0.00627124 0)
(0.0500878 -0.00588967 0)
(0.050322 -0.00549559 -6.32964e-22)
(0.0505459 -0.00508917 -1.32235e-21)
(0.050759 -0.00467056 1.37335e-21)
(0.0509607 -0.00423992 1.44936e-21)
(0.0511508 -0.00379741 -1.45777e-21)
(0.0513287 -0.00334318 0)
(0.0514941 -0.0028774 7.87507e-22)
(0.0516466 -0.00240021 -4.045e-22)
(0.0517859 -0.00191179 0)
(0.0519117 -0.0014123 4.23385e-22)
(0.0520235 -0.000901355 -8.00846e-23)
(0.0521208 -0.000378794 5.34851e-23)
(0.0522033 0.000155347 -2.10974e-22)
(0.0522708 0.000701074 0)
(0.0523229 0.00125844 -8.82615e-22)
(0.0523592 0.00182757 8.74415e-22)
(0.0523792 0.0024086 0)
(0.0523827 0.00300174 -5.76245e-23)
(0.0523692 0.00360721 3.49816e-23)
(0.0523383 0.00422534 1.74429e-21)
(0.0522896 0.00485645 0)
(0.0522227 0.00550092 -9.5128e-23)
(0.0521371 0.00615916 -1.76535e-21)
(0.0520322 0.00683168 -5.52771e-21)
(0.0519074 0.00751903 -1.1948e-22)
(0.0517619 0.00822191 3.57751e-21)
(0.0515952 0.00894101 0)
(0.0514064 0.00967713 0)
(0.0511948 0.010431 3.83188e-21)
(0.0509595 0.0112035 0)
(0.0506996 0.0119955 0)
(0.0504139 0.0128076 -7.96549e-23)
(0.0501012 0.013641 -3.8147e-21)
(0.0497599 0.0144964 -7.8918e-21)
(0.0493892 0.0153753 7.91268e-21)
(0.0489851 0.016277 -4.43216e-22)
(0.0485531 0.0172086 3.74872e-21)
(0.0480662 0.0181512 4.02689e-21)
(0.047615 0.0191645 0)
(0.0410771 -0.0123437 0)
(0.0414261 -0.0123079 -5.06695e-24)
(0.0417748 -0.0122609 2.72836e-22)
(0.0421257 -0.012204 -5.32932e-23)
(0.0424777 -0.0121359 0)
(0.0428298 -0.0120557 -7.52167e-22)
(0.0431815 -0.0119632 1.44148e-21)
(0.0435331 -0.0118584 1.07217e-22)
(0.0438846 -0.0117409 -1.95757e-21)
(0.0442358 -0.0116108 3.62514e-22)
(0.0445867 -0.0114678 -5.32845e-22)
(0.0449368 -0.0113117 -5.84103e-22)
(0.0452859 -0.0111425 1.81656e-21)
(0.0456335 -0.01096 -2.59252e-21)
(0.0459792 -0.0107641 1.34302e-21)
(0.0463224 -0.0105547 -8.29746e-22)
(0.0466626 -0.0103318 3.17127e-21)
(0.0469993 -0.0100952 -7.50575e-22)
(0.0473319 -0.00984499 9.72005e-22)
(0.0476599 -0.00958109 -8.80646e-22)
(0.0479828 -0.00930349 9.3347e-23)
(0.0483001 -0.00901219 -6.15091e-21)
(0.0486111 -0.00870723 -1.11949e-21)
(0.0489155 -0.00838865 -8.84559e-23)
(0.0492127 -0.00805652 3.47698e-21)
(0.0495021 -0.00771094 -1.15986e-21)
(0.0497832 -0.00735201 2.5323e-21)
(0.0500555 -0.00697986 -3.87329e-21)
(0.0503186 -0.00659465 0)
(0.0505718 -0.00619653 -1.39377e-21)
(0.0508148 -0.00578568 1.39818e-21)
(0.051047 -0.00536229 4.80638e-23)
(0.0512679 -0.00492657 -7.7673e-22)
(0.0514772 -0.00447871 -7.98393e-22)
(0.0516743 -0.00401889 2.42537e-21)
(0.0518589 -0.00354733 -1.61489e-21)
(0.0520307 -0.0030642 1.27777e-21)
(0.0521892 -0.00256971 -1.71944e-21)
(0.0523342 -0.00206402 8.7452e-22)
(0.0524654 -0.00154735 -2.19976e-22)
(0.0525823 -0.00101922 0)
(0.0526845 -0.000479577 2.31824e-22)
(0.0527719 7.15246e-05 -2.29518e-22)
(0.052844 0.000634082 -4.67854e-22)
(0.0529007 0.00120814 1.40292e-21)
(0.0529416 0.00179381 -9.50856e-22)
(0.0529663 0.00239125 -9.34547e-22)
(0.0529746 0.00300065 0)
(0.052966 0.00362227 -3.85273e-21)
(0.0529403 0.00425644 3.80304e-21)
(0.0528971 0.0049035 -1.8569e-21)
(0.0528359 0.00556387 1.84477e-21)
(0.0527562 0.00623802 1.95109e-21)
(0.0526577 0.00692646 3.79983e-21)
(0.0525395 0.0076298 3.77786e-21)
(0.0524013 0.0083487 0)
(0.0522421 0.00908387 -4.01426e-21)
(0.0520614 0.0098361 0)
(0.0518582 0.0106062 1.24552e-22)
(0.0516317 0.0113949 -3.87345e-21)
(0.0513809 0.0122031 3.98002e-21)
(0.0511046 0.0130318 3.93307e-21)
(0.0508017 0.0138817 -4.18045e-21)
(0.0504706 0.0147539 -1.38817e-22)
(0.0501104 0.0156498 7.74484e-23)
(0.0497174 0.0165688 1.24857e-20)
(0.0492963 0.0175176 4.36562e-21)
(0.0488219 0.0184804 4.34645e-21)
(0.0483824 0.0195118 -4.29464e-21)
(0.0411027 -0.0129674 0)
(0.0414704 -0.0129301 0)
(0.0418387 -0.012881 3.21497e-22)
(0.0422102 -0.0128214 -4.82691e-22)
(0.0425839 -0.0127502 -2.76526e-22)
(0.0429583 -0.0126663 0)
(0.0433327 -0.0125694 0)
(0.0437069 -0.0124595 4.47289e-22)
(0.0440804 -0.0123365 -9.92642e-22)
(0.044453 -0.0122 -1.81286e-22)
(0.0448244 -0.01205 2.8446e-21)
(0.0451943 -0.0118861 -6.07215e-22)
(0.0455624 -0.0117083 6.96214e-22)
(0.0459284 -0.0115165 -1.41131e-21)
(0.0462918 -0.0113106 8.25806e-22)
(0.0466523 -0.0110904 0)
(0.0470093 -0.0108561 0)
(0.0473623 -0.0106074 4.65683e-23)
(0.0477109 -0.0103444 -2.94514e-21)
(0.0480544 -0.0100671 9.90625e-22)
(0.0483923 -0.00977555 -1.12699e-21)
(0.048724 -0.00946975 1.08433e-21)
(0.049049 -0.00914977 1.17242e-21)
(0.0493667 -0.0088157 -1.12449e-21)
(0.0496766 -0.00846764 -1.22129e-21)
(0.0499782 -0.00810572 0)
(0.0502709 -0.00773009 0)
(0.0505542 -0.00734092 2.08135e-21)
(0.0508276 -0.00693839 0)
(0.0510906 -0.00652271 1.50994e-21)
(0.0513427 -0.00609409 -1.51426e-21)
(0.0515835 -0.00565277 -7.64269e-22)
(0.0518125 -0.00519898 7.85884e-22)
(0.0520294 -0.00473296 1.66781e-21)
(0.0522336 -0.00425496 -8.29238e-22)
(0.0524249 -0.00376521 -8.8516e-22)
(0.0526029 -0.00326394 9.17844e-22)
(0.0527673 -0.00275137 0)
(0.0529177 -0.00222772 0)
(0.0530542 -0.00169322 2.49205e-22)
(0.053176 -0.00114729 0)
(0.053283 -0.000590008 0)
(0.0533748 -2.14317e-05 -7.49035e-22)
(0.0534514 0.000558427 9.9928e-22)
(0.0535125 0.00114961 -5.10025e-22)
(0.0535577 0.00175222 9.69964e-22)
(0.0535869 0.00236641 0)
(0.0535996 0.0029924 3.04532e-21)
(0.0535958 0.00363044 -3.87721e-23)
(0.0535749 0.00428087 0)
(0.0535368 0.00494407 -4.04813e-21)
(0.0534809 0.00562047 -4.18228e-23)
(0.0534069 0.00631058 -4.00963e-21)
(0.0533143 0.00701495 -2.09631e-21)
(0.0532025 0.00773418 -4.12526e-21)
(0.0530709 0.00846897 4.09547e-21)
(0.0529188 0.00922004 4.03586e-21)
(0.0527455 0.00998816 0)
(0.0525501 0.0107741 -4.20829e-21)
(0.0523317 0.0115788 7.8011e-23)
(0.0520894 0.0124031 0)
(0.051822 0.0132478 0)
(0.0515284 0.014114 4.1954e-21)
(0.0512071 0.0150025 0)
(0.0508573 0.0159148 0)
(0.0504754 0.0168509 -4.40403e-21)
(0.0500663 0.017816 -4.21379e-21)
(0.0496058 0.0188011 -4.6791e-21)
(0.0491689 0.019832 0)
(0.0411321 -0.0136311 0)
(0.0415187 -0.0135918 0)
(0.0419061 -0.0135401 0)
(0.0422973 -0.0134774 -2.83681e-22)
(0.0426913 -0.0134025 -4.04001e-22)
(0.0430868 -0.0133142 -1.23764e-22)
(0.0434831 -0.0132124 8.00036e-22)
(0.0438796 -0.0130969 -4.55728e-22)
(0.0442759 -0.0129676 5.8589e-22)
(0.0446714 -0.0128243 1.21267e-21)
(0.0450654 -0.0126666 0)
(0.0454575 -0.0124944 0)
(0.0458472 -0.0123076 -5.31834e-23)
(0.0462341 -0.012106 2.46559e-21)
(0.0466178 -0.0118895 -3.58199e-21)
(0.0469978 -0.0116581 -1.12122e-22)
(0.0473737 -0.0114118 1.91625e-21)
(0.047745 -0.0111504 9.9418e-22)
(0.0481111 -0.010874 -9.42419e-23)
(0.0484716 -0.0105826 0)
(0.0488258 -0.0102764 2.38445e-21)
(0.0491733 -0.00995527 0)
(0.0495135 -0.00961942 2.5805e-21)
(0.0498457 -0.00926896 -4.00649e-21)
(0.0501695 -0.00890404 4.15628e-21)
(0.0504843 -0.00852481 1.48533e-21)
(0.0507895 -0.00813149 -2.26516e-21)
(0.0510846 -0.00772427 2.30907e-21)
(0.0513692 -0.0073034 -1.54682e-21)
(0.0516427 -0.00686912 0)
(0.0519046 -0.00642171 -1.6786e-21)
(0.0521546 -0.00596143 -9.20072e-22)
(0.0523921 -0.00548858 1.72901e-21)
(0.0526169 -0.00500344 -1.79553e-21)
(0.0528285 -0.0045063 9.27615e-22)
(0.0530266 -0.00399745 -9.32508e-22)
(0.0532109 -0.00347715 -4.68092e-22)
(0.053381 -0.00294568 5.08606e-22)
(0.0535369 -0.00240326 2.48716e-22)
(0.0536784 -0.00185019 -7.64074e-22)
(0.0538049 -0.00128571 -6.68587e-23)
(0.0539162 -0.000710145 0)
(0.0540123 -0.000123511 2.54786e-22)
(0.054093 0.000474164 -5.11398e-22)
(0.054158 0.00108291 5.13092e-22)
(0.0542071 0.00170283 0)
(0.0542402 0.00233408 0)
(0.054257 0.00297688 1.10071e-21)
(0.0542573 0.0036315 -2.11705e-21)
(0.0542407 0.00429829 -4.33714e-21)
(0.0542071 0.00497767 8.56365e-21)
(0.054156 0.00567009 -2.19855e-21)
(0.0540871 0.00637607 2.14047e-21)
(0.0539998 0.00709622 2.10712e-21)
(0.0538937 0.00783116 -4.35883e-21)
(0.0537682 0.00858161 4.3265e-21)
(0.0536225 0.0093483 0)
(0.053456 0.010132 -4.50348e-21)
(0.0532678 0.0109336 8.41576e-23)
(0.0530571 0.0117539 4.41413e-21)
(0.0528228 0.0125938 0)
(0.0525639 0.0134543 0)
(0.0522794 0.0143362 0)
(0.0519677 0.0152406 9.324e-21)
(0.0516285 0.0161691 4.82552e-21)
(0.0512577 0.017121 4.64719e-21)
(0.0508631 0.0181031 -9.31381e-21)
(0.0504152 0.0191049 -2.48032e-22)
(0.0500089 0.0201609 4.97052e-21)
(0.0411658 -0.0143381 0)
(0.0415729 -0.0142966 -4.48853e-22)
(0.0419806 -0.0142421 5.90961e-22)
(0.0423921 -0.0141758 -5.99509e-22)
(0.0428065 -0.0140967 1.12859e-21)
(0.0432227 -0.0140036 4.88808e-22)
(0.04364 -0.0138961 5.52743e-22)
(0.0440581 -0.0137744 0)
(0.0444764 -0.0136381 -1.27476e-21)
(0.0448943 -0.013487 -1.37003e-21)
(0.0453111 -0.0133209 1.44621e-21)
(0.045726 -0.0131396 -8.60924e-22)
(0.0461385 -0.012943 9.76316e-22)
(0.0465479 -0.0127308 -7.63135e-22)
(0.0469536 -0.0125031 -4.03783e-21)
(0.0473552 -0.0122597 -1.18556e-22)
(0.047752 -0.0120006 -1.16654e-22)
(0.0481435 -0.0117257 2.2438e-21)
(0.0485291 -0.0114351 1.15545e-21)
(0.0489084 -0.0111289 2.56864e-21)
(0.0492807 -0.0108071 -2.45636e-21)
(0.0496455 -0.0104698 0)
(0.0500022 -0.0101172 1.10011e-22)
(0.0503502 -0.0097494 0)
(0.0506891 -0.00936663 -1.45609e-21)
(0.0510181 -0.00896908 -1.50391e-21)
(0.0513369 -0.00855701 7.75576e-22)
(0.0516448 -0.00813069 0)
(0.0519413 -0.00769039 8.80791e-22)
(0.052226 -0.00723643 1.76722e-21)
(0.0524984 -0.00676913 -1.77114e-21)
(0.0527581 -0.00628881 8.90288e-22)
(0.0530046 -0.00579582 -1.90227e-21)
(0.0532376 -0.00529051 3.81816e-21)
(0.0534567 -0.00477321 -9.77689e-22)
(0.0536618 -0.00424427 0)
(0.0538524 -0.003704 -5.32399e-22)
(0.0540283 -0.00315273 3.1161e-23)
(0.0541895 -0.00259072 8.05524e-22)
(0.0543357 -0.00201825 -6.85148e-22)
(0.0544666 -0.00143454 1.33278e-22)
(0.054582 -0.000840039 -4.21379e-22)
(0.0546819 -0.000234791 2.76094e-22)
(0.0547661 0.000381175 0)
(0.0548346 0.00100788 0)
(0.0548871 0.00164542 0)
(0.0549235 0.00229396 1.15143e-21)
(0.0549437 0.00295372 1.15334e-21)
(0.0549475 0.003625 0)
(0.0549347 0.00430817 2.24747e-21)
(0.054905 0.00500367 2.36157e-21)
(0.054858 0.00571198 2.32398e-21)
(0.0547935 0.00643368 0)
(0.0547111 0.00716938 0)
(0.0546101 0.00791976 -4.59792e-21)
(0.0544901 0.00868555 4.56291e-21)
(0.0543504 0.0094675 0)
(0.0541903 0.0102665 4.51981e-21)
(0.054009 0.0110833 -4.54312e-21)
(0.0538057 0.0119188 -4.79785e-21)
(0.0535794 0.012774 4.7444e-21)
(0.0533291 0.0136499 -4.71372e-21)
(0.0530538 0.0145473 0)
(0.0527522 0.0154672 -4.71232e-21)
(0.0524239 0.0164114 1.59291e-22)
(0.0520646 0.0173787 -9.93967e-21)
(0.0516841 0.0183773 -1.01454e-20)
(0.0512456 0.0193907 9.93671e-21)
(0.0508825 0.0204641 -4.96266e-21)
(0.041203 -0.0150921 -1.13539e-22)
(0.0416325 -0.0150483 0)
(0.0420622 -0.0149906 -1.48391e-22)
(0.0424958 -0.0149205 1.05543e-21)
(0.0429321 -0.0148368 -2.05195e-21)
(0.0433701 -0.0147383 5.04435e-22)
(0.0438092 -0.0146247 -5.6273e-22)
(0.044249 -0.0144959 1.40571e-21)
(0.0446892 -0.0143519 -7.06564e-22)
(0.0451292 -0.0141923 -7.52717e-22)
(0.0455683 -0.0140169 -9.10675e-22)
(0.0460057 -0.0138256 2.78467e-21)
(0.0464408 -0.0136182 -8.63107e-22)
(0.0468728 -0.0133945 3.24786e-21)
(0.0473011 -0.0131545 1.17997e-21)
(0.047725 -0.012898 1.25348e-22)
(0.0481437 -0.0126251 -2.37418e-21)
(0.0485567 -0.0123357 0)
(0.0489632 -0.01203 0)
(0.0493628 -0.0117078 -1.44628e-21)
(0.0497546 -0.0113694 -1.38385e-21)
(0.0501382 -0.0110149 -3.03923e-21)
(0.0505128 -0.0106444 1.54664e-21)
(0.050878 -0.0102582 3.2436e-21)
(0.0512332 -0.0098564 -3.24089e-21)
(0.0515777 -0.00943939 8.80839e-22)
(0.0519109 -0.00900743 9.05649e-22)
(0.0522325 -0.00856082 0)
(0.0525418 -0.00809992 -8.90438e-22)
(0.0528385 -0.00762509 -1.91004e-21)
(0.0531219 -0.00713672 -4.2333e-23)
(0.0533917 -0.00663519 1.9606e-21)
(0.0536476 -0.00612092 -1.04786e-21)
(0.0538891 -0.00559431 0)
(0.054116 -0.00505577 5.4687e-22)
(0.054328 -0.0045057 -5.58325e-22)
(0.054525 -0.00394448 5.36669e-22)
(0.0547066 -0.00337248 -1.12953e-21)
(0.0548728 -0.00279003 0)
(0.0550235 -0.00219728 -1.50618e-22)
(0.0551584 -0.00159367 1.46833e-22)
(0.0552774 -0.000979621 -2.28276e-22)
(0.0553806 -0.000355234 8.8546e-22)
(0.0554678 0.000279451 -1.77394e-21)
(0.0555391 0.000924447 1.17574e-21)
(0.0555944 0.00157985 1.19033e-21)
(0.0556336 0.00224582 -1.11845e-21)
(0.0556566 0.00292261 2.44688e-21)
(0.0556633 0.00361054 -2.3653e-21)
(0.0556535 0.00431 -5.93822e-21)
(0.0556271 0.00502147 4.46542e-23)
(0.0555838 0.00574546 -2.33289e-21)
(0.0555233 0.0064826 0)
(0.0554452 0.00723353 0)
(0.055349 0.00799898 -4.84249e-21)
(0.0552343 0.00877973 7.18941e-21)
(0.0551005 0.00957657 -4.82266e-21)
(0.0549468 0.0103904 0)
(0.0547725 0.011222 5.01586e-21)
(0.0545769 0.0120725 9.76811e-21)
(0.0543589 0.0129427 -4.83704e-21)
(0.0541178 0.0138336 -7.14602e-23)
(0.0538524 0.0147462 4.99362e-21)
(0.0535616 0.0156815 -8.21797e-23)
(0.0532448 0.0166411 -1.02478e-20)
(0.0528981 0.0176241 1.01903e-20)
(0.0525302 0.0186386 5.11213e-21)
(0.0521021 0.0196644 0)
(0.0517707 0.0207651 0)
(0.0412431 -0.0158966 1.15717e-22)
(0.0416967 -0.0158504 9.56245e-22)
(0.0421504 -0.0157894 -7.56827e-22)
(0.0426079 -0.0157152 0)
(0.0430682 -0.0156266 -2.60515e-22)
(0.0435299 -0.0155223 -1.34398e-21)
(0.0439924 -0.015402 9.56452e-22)
(0.0444556 -0.0152657 -2.03459e-21)
(0.0449189 -0.0151132 1.61061e-21)
(0.0453819 -0.0149443 0)
(0.0458437 -0.0147589 4.09223e-22)
(0.0463039 -0.0145566 0)
(0.0467616 -0.0143373 1.22725e-21)
(0.0472163 -0.014101 -3.38287e-21)
(0.047667 -0.0138476 0)
(0.0481132 -0.0135769 0)
(0.048554 -0.013289 0)
(0.0489888 -0.0129839 -2.14678e-21)
(0.0494167 -0.0126616 2.87477e-21)
(0.0498371 -0.0123222 1.46588e-21)
(0.0502492 -0.0119659 0)
(0.0506523 -0.0115928 0)
(0.0510459 -0.0112031 0)
(0.0514291 -0.0107971 -4.44723e-21)
(0.0518014 -0.010375 5.35758e-21)
(0.0521622 -0.00993722 -2.71089e-21)
(0.0525109 -0.009484 -1.89988e-21)
(0.0528469 -0.00901577 1.96915e-21)
(0.0531697 -0.00853292 -1.97028e-21)
(0.0534788 -0.00803589 1.05749e-21)
(0.0537738 -0.00752513 -2.11001e-21)
(0.0540542 -0.00700111 1.00967e-21)
(0.0543196 -0.0064643 2.18501e-21)
(0.0545699 -0.00591518 1.15069e-21)
(0.0548046 -0.00535423 -5.51369e-22)
(0.0550235 -0.00478192 5.62698e-22)
(0.0552266 -0.0041987 0)
(0.0554136 -0.003605 -3.55441e-23)