/*--------------------------------*- C++ -*----------------------------------*\
| =========                 |                                                 |
| \\      /  F ield         | OpenFOAM: The Open Source CFD Toolbox           |
|  \\    /   O peration     | Version:  2312                                  |
|   \\  /    A nd           | Website:  www.openfoam.com                      |
|    \\/     M anipulation  |                                                 |
\*---------------------------------------------------------------------------*/
FoamFile
{
    version     2.0;
    format      ascii;
    arch        "LSB;label=32;scalar=64";
    class       volScalarField;
    location    "1600";
    object      epsilon;
}
// * * * * * * * * * * * * * * * * * * * * * * * * * * * * * * * * * * * * * //

dimensions      [0 2 -3 0 0 0 0];

internalField   nonuniform List<scalar> 
76025
(
0.000260197
0.000259818
0.000259451
0.000259093
0.000258392
0.000257876
0.000257128
0.000256614
0.000256004
0.000255608
0.000255095
0.000254677
0.000254132
0.000253725
0.00025328
0.000252903
0.000252298
0.000251872
0.000251153
0.000250639
0.000249936
0.000249433
0.000248762
0.000248134
0.000247535
0.000246894
0.000246373
0.000245735
0.00024514
0.000244502
0.000243719
0.000243245
0.000242477
0.000241874
0.000241122
0.000240375
0.000239833
0.000239132
0.00023881
0.000238042
0.000238092
0.000238287
0.00023926
0.000240208
0.00024209
0.000243936
0.000246811
0.000249376
0.000253443
0.000256979
0.00026207
0.000266862
0.000272569
0.000277911
0.000284763
0.000291783
0.00029933
0.000308525
0.000317919
0.000330627
0.000343408
0.000358049
0.000382848
0.000401464
0.000439856
0.000463971
0.000505707
0.000559242
0.000624573
0.000261973
0.000261533
0.000261084
0.000260755
0.000260248
0.000259807
0.000259212
0.000258669
0.000258039
0.000257497
0.000256921
0.000256441
0.000255905
0.000255421
0.000254946
0.000254532
0.000254086
0.000253647
0.000253181
0.000252702
0.000252169
0.000251665
0.000251138
0.000250597
0.000249944
0.000249316
0.000248577
0.000247946
0.00024732
0.000246768
0.000246161
0.000245689
0.000245226
0.000244855
0.000244333
0.000244116
0.000244147
0.000244341
0.000244828
0.000245449
0.000246481
0.000247607
0.000249247
0.000251005
0.000253316
0.000255834
0.000258804
0.000262249
0.000265834
0.000270329
0.000274512
0.000280307
0.000285112
0.000292633
0.000298608
0.000308105
0.000316019
0.000328067
0.000339522
0.000355252
0.000372953
0.00039529
0.000422094
0.000447856
0.000489824
0.000521366
0.000593924
0.000643514
0.000768557
0.000264696
0.000264277
0.000263774
0.000263365
0.000262912
0.00026251
0.000262034
0.000261575
0.000261034
0.000260507
0.000259942
0.000259415
0.0002589
0.000258386
0.000257898
0.000257415
0.000256965
0.000256497
0.00025603
0.000255565
0.000255102
0.000254662
0.000254272
0.000253933
0.000253622
0.000253289
0.000252926
0.000252507
0.00025216
0.000251247
0.000251112
0.000251053
0.000251158
0.000251318
0.000251618
0.00025196
0.000252543
0.000253168
0.000254157
0.000255146
0.000256611
0.000257974
0.000260005
0.000261855
0.000264613
0.000267126
0.000270766
0.00027415
0.000278753
0.000283256
0.000288875
0.000294798
0.00030139
0.000309177
0.000316954
0.000327385
0.000337115
0.00035127
0.000364823
0.000384254
0.000404709
0.000428966
0.000458739
0.000488455
0.000537387
0.000577884
0.000659379
0.000720826
0.000855595
0.000267855
0.000267561
0.000267132
0.000266683
0.000266203
0.000265768
0.000265328
0.000264914
0.000264485
0.000264035
0.000263559
0.000263061
0.000262586
0.000262116
0.000261678
0.000261278
0.000260918
0.000260589
0.000260335
0.000260064
0.000259789
0.00025949
0.000259104
0.000258781
0.00025795
0.000257846
0.000257869
0.000257931
0.00025806
0.000258132
0.000258317
0.000258564
0.000258962
0.000259403
0.000260028
0.000260681
0.000261587
0.000262514
0.000263799
0.000265091
0.00026686
0.000268601
0.000271006
0.000273357
0.000276588
0.000279747
0.000283973
0.000288137
0.000293475
0.000298838
0.000305294
0.00031203
0.000319656
0.000328352
0.000337668
0.000349384
0.000361593
0.000378255
0.000395624
0.000418954
0.000443041
0.000472673
0.000508089
0.000546285
0.000607046
0.000657789
0.000763663
0.000845233
0.00103012
0.000271912
0.000271759
0.000271485
0.000271135
0.000270728
0.000270304
0.000269868
0.000269457
0.000269042
0.0002687
0.00026836
0.000268042
0.000267712
0.000267443
0.000267178
0.000266844
0.000266594
0.000266131
0.000265632
0.000265289
0.000265142
0.000265111
0.000265115
0.000265147
0.000265136
0.000265203
0.000265377
0.000265611
0.00026593
0.000266287
0.000266749
0.000267273
0.000267967
0.000268717
0.000269693
0.000270703
0.000272003
0.000273309
0.000275023
0.000276723
0.000278996
0.000281206
0.000284236
0.000287123
0.000291121
0.000294852
0.000300009
0.000304748
0.000311214
0.000317067
0.000324931
0.000332192
0.000341867
0.000351373
0.000363657
0.000376904
0.000393665
0.000412885
0.000435809
0.000461746
0.000491447
0.000525431
0.000568047
0.000617239
0.000688848
0.000759636
0.000890866
0.000998047
0.00123879
0.000277699
0.000277515
0.000277276
0.000276971
0.000276623
0.000276313
0.000275993
0.000275709
0.000275427
0.000275014
0.000274711
0.000274232
0.000273973
0.000273004
0.000272676
0.000272738
0.000271934
0.000272184
0.000272442
0.000272623
0.000272777
0.000272953
0.000273144
0.000273373
0.000273643
0.000273967
0.000274373
0.000274849
0.000275428
0.000276078
0.00027684
0.000277686
0.000278691
0.000279781
0.000281103
0.000282502
0.000284208
0.000285969
0.000288161
0.000290383
0.000293209
0.000296031
0.000299718
0.000303319
0.000308083
0.000312622
0.000318677
0.000324316
0.000331833
0.000338713
0.000348066
0.000356747
0.000368717
0.000380097
0.000395837
0.000411658
0.000433221
0.000454947
0.000483582
0.000511605
0.000549818
0.000588447
0.000646452
0.000706678
0.000801389
0.000896951
0.00106613
0.00121589
0.00153793
0.000284724
0.000284586
0.000284499
0.000284565
0.000284574
0.000284472
0.000284074
0.000283498
0.000283171
0.000283228
0.000282371
0.000282381
0.000282464
0.000282466
0.000282515
0.000282649
0.00028267
0.000282792
0.000282989
0.000283243
0.00028354
0.000283896
0.000284284
0.000284714
0.000285184
0.0002857
0.000286284
0.000286931
0.000287686
0.000288536
0.000289543
0.000290688
0.000292042
0.00029353
0.000295285
0.000297159
0.000299349
0.000301651
0.000304383
0.000307238
0.000310689
0.000314256
0.00031867
0.000323154
0.000328814
0.000334444
0.000341619
0.00034858
0.00035747
0.000366071
0.000377293
0.000388205
0.000402579
0.000416673
0.000435659
0.000454775
0.000480471
0.000506001
0.00054058
0.000574257
0.000623564
0.000672281
0.000750106
0.000826648
0.000954986
0.00108492
0.00130962
0.00153206
0.00193957
0.000292712
0.00029258
0.000292475
0.000292658
0.000292619
0.000291995
0.000292134
0.00029231
0.000292486
0.000292739
0.00029282
0.000292943
0.000293143
0.000293393
0.00029366
0.000293978
0.000294278
0.000294621
0.000294971
0.000295381
0.000295844
0.0002964
0.000297062
0.000297827
0.000298709
0.000299669
0.000300734
0.000301874
0.000303139
0.000304485
0.000305994
0.000307615
0.000309432
0.000311346
0.00031353
0.000315828
0.000318475
0.000321292
0.000324601
0.000328155
0.000332377
0.0003369
0.000342329
0.000348099
0.000355053
0.000362295
0.000370956
0.000379744
0.000390239
0.000400944
0.000413895
0.000427203
0.000443592
0.000460835
0.000482891
0.000506498
0.000537073
0.000569281
0.000612058
0.000656261
0.000720337
0.000785563
0.000890095
0.000993166
0.0011737
0.00135151
0.00166658
0.00197557
0.00250979
0.000304819
0.000305288
0.000305713
0.000305956
0.000306196
0.000306252
0.000306333
0.000306481
0.00030668
0.000306931
0.00030719
0.00030746
0.000307774
0.000308151
0.00030858
0.000309088
0.000309642
0.00031027
0.000310941
0.000311661
0.000312422
0.000313213
0.000314055
0.000314964
0.000315963
0.000317068
0.000318306
0.000319671
0.00032121
0.000322898
0.000324806
0.000326869
0.000329193
0.000331649
0.000334459
0.00033744
0.000340879
0.000344574
0.000348879
0.000353547
0.000358993
0.000364888
0.000371779
0.000379178
0.000387716
0.000396683
0.000406855
0.000417387
0.000429422
0.000442169
0.000457019
0.000473255
0.000492733
0.000514843
0.000541954
0.000572885
0.000610953
0.000653908
0.000708149
0.000769582
0.000853347
0.000947526
0.00108836
0.00124042
0.00149087
0.00174322
0.00217999
0.00259438
0.00335526
0.000319586
0.00032048
0.000321278
0.000321892
0.000322417
0.000322853
0.000323232
0.000323608
0.000323996
0.00032442
0.000324892
0.000325393
0.000325933
0.000326505
0.000327116
0.00032777
0.000328487
0.000329264
0.000330138
0.000331084
0.000332155
0.000333302
0.000334558
0.00033589
0.000337334
0.000338858
0.000340526
0.000342308
0.000344262
0.000346386
0.000348771
0.000351364
0.000354316
0.000357507
0.00036115
0.000365052
0.000369476
0.000374191
0.000379534
0.000385299
0.000391895
0.000399115
0.000407437
0.000416445
0.000426608
0.000437378
0.000449345
0.000462028
0.000476407
0.000492165
0.000510578
0.000531563
0.000556659
0.000585797
0.000620772
0.000661548
0.000711018
0.000769241
0.000842215
0.000930138
0.00104602
0.00118625
0.00138137
0.00161012
0.00194912
0.00231365
0.0028944
0.00347725
0.00443384
0.000341075
0.000341455
0.000341987
0.00034254
0.000343119
0.000343697
0.000344281
0.000344878
0.000345514
0.000346169
0.000346872
0.000347611
0.000348416
0.000349288
0.000350245
0.000351286
0.000352419
0.000353639
0.000354948
0.000356336
0.000357806
0.00035935
0.000360991
0.000362699
0.000364536
0.000366452
0.000368531
0.000370756
0.000373185
0.000375862
0.000378828
0.000382097
0.000385776
0.000389786
0.000394311
0.000399185
0.000404642
0.000410482
0.000417052
0.000424221
0.000432361
0.000441308
0.000451395
0.000462291
0.000474401
0.000487406
0.000501917
0.000517843
0.000536167
0.000556914
0.000581403
0.000609702
0.000643344
0.000682474
0.000729553
0.000785336
0.000854002
0.000936989
0.00104199
0.00117121
0.00133864
0.00154556
0.00181924
0.00215166
0.00260245
0.0031208
0.00387595
0.00467824
0.00627368
0.000365947
0.000366567
0.000367293
0.000368034
0.000368811
0.000369614
0.000370438
0.000371285
0.000372165
0.000373095
0.000374085
0.000375136
0.000376237
0.000377423
0.000378663
0.000380018
0.000381447
0.000383013
0.000384691
0.00038653
0.000388517
0.000390657
0.000392955
0.000395378
0.000397973
0.0004007
0.000403609
0.000406665
0.000409947
0.000413475
0.000417322
0.000421472
0.000426075
0.000431037
0.000436572
0.00044251
0.000449155
0.000456349
0.000464483
0.000473468
0.00048361
0.000494824
0.000507343
0.000521064
0.000536334
0.000553131
0.000572046
0.000593333
0.000617927
0.0006463
0.00067981
0.00071898
0.000765688
0.000821057
0.000888476
0.000969965
0.00107093
0.00119442
0.00134948
0.00154014
0.00178176
0.00207867
0.00245734
0.00292072
0.00350912
0.00423543
0.00518187
0.00653157
0.00941106
0.000397142
0.000398084
0.000399115
0.00040018
0.000401286
0.000402453
0.000403666
0.000404927
0.000406255
0.000407642
0.000409127
0.000410696
0.000412367
0.000414114
0.000415959
0.000417894
0.000419953
0.000422126
0.000424431
0.000426875
0.00042947
0.00043222
0.000435184
0.000438346
0.000441748
0.0004454
0.000449326
0.00045356
0.000458123
0.000463013
0.000468233
0.000473793
0.000479776
0.000486212
0.000493247
0.000500902
0.00050945
0.000518886
0.000529543
0.000541393
0.00055466
0.000569298
0.000585536
0.000603432
0.000623376
0.000645657
0.000671028
0.000700196
0.00073445
0.000774949
0.000823366
0.000881077
0.00095056
0.00103425
0.00113616
0.00125986
0.00141123
0.00159537
0.00182127
0.00209614
0.00243482
0.00284638
0.00335701
0.00397855
0.00473003
0.00574288
0.00700401
0.00971859
0.0151568
0.000437704
0.000439006
0.0004404
0.00044183
0.000443322
0.0004449
0.000446563
0.000448303
0.000450141
0.000452077
0.000454125
0.000456291
0.000458566
0.000460939
0.000463416
0.000466012
0.000468785
0.000471751
0.000474952
0.000478366
0.000482001
0.000485814
0.000489826
0.000494055
0.000498517
0.000503277
0.000508335
0.000513853
0.000519831
0.000526391
0.000533485
0.000541195
0.000549489
0.000558474
0.00056818
0.000578736
0.000590306
0.000602992
0.000617074
0.000632662
0.000650012
0.00066929
0.00069086
0.000715047
0.000742523
0.000774023
0.000810803
0.000854318
0.000906549
0.000969325
0.00104481
0.00113521
0.00124359
0.00137328
0.00152861
0.0017143
0.00193637
0.00220186
0.00251971
0.00290108
0.00335941
0.00391129
0.00457847
0.00538362
0.00631585
0.00787681
0.0098107
0.0160699
0.0282995
0.000491573
0.000493407
0.00049533
0.000497272
0.000499279
0.000501372
0.000503568
0.000505863
0.000508275
0.000510807
0.000513484
0.000516319
0.000519343
0.000522554
0.000525949
0.000529559
0.000533345
0.000537404
0.000541691
0.000546268
0.000551152
0.000556317
0.000561822
0.00056767
0.000573902
0.000580596
0.000587774
0.000595641
0.000604107
0.000613428
0.000623494
0.000634512
0.000646363
0.000659178
0.000672866
0.000687601
0.000703446
0.000720678
0.000739606
0.000760634
0.000784231
0.00081098
0.000841577
0.000876943
0.000918317
0.000967266
0.00102585
0.00109637
0.00118126
0.00128267
0.00140296
0.00154463
0.00171092
0.00190557
0.00213328
0.00239976
0.0027118
0.00307853
0.00350945
0.00401944
0.00461927
0.0053352
0.00617238
0.00719437
0.00836536
0.0114439
0.0148
0.030139
0.0581
0.000563938
0.000566607
0.000569378
0.000572159
0.000575015
0.000577969
0.000581044
0.000584248
0.000587599
0.000591111
0.000594808
0.000598719
0.000602888
0.000607356
0.000612133
0.000617273
0.000622724
0.000628547
0.000634702
0.000641217
0.000648129
0.000655447
0.000663226
0.000671507
0.000680305
0.000689754
0.000699843
0.000710715
0.000722364
0.000734983
0.000748586
0.000763386
0.000779412
0.00079687
0.000815817
0.000836537
0.000859272
0.000884501
0.000912766
0.000944835
0.000981651
0.00102433
0.00107423
0.00113305
0.00120284
0.00128597
0.001385
0.0015023
0.00163991
0.00179966
0.00198364
0.00219444
0.00243563
0.00271169
0.00302829
0.00339255
0.00381249
0.00429908
0.00486199
0.00551793
0.00627407
0.00717252
0.00817076
0.00955748
0.0112746
0.0174371
0.0247136
0.0595895
0.127635
0.000665185
0.000669068
0.000673103
0.000677166
0.000681336
0.000685651
0.000690133
0.000694804
0.000699691
0.00070482
0.000710225
0.000715932
0.000721996
0.000728457
0.000735362
0.00074276
0.000750661
0.000759096
0.000768063
0.000777582
0.000787672
0.000798384
0.000809725
0.000821834
0.000834768
0.000848618
0.000863447
0.000879387
0.000896524
0.000915053
0.000935101
0.000956951
0.000980861
0.0010072
0.00103639
0.00106901
0.0011058
0.00114765
0.0011957
0.00125132
0.00131599
0.00139137
0.00147933
0.00158198
0.00170157
0.00184031
0.00200005
0.00218229
0.00238843
0.00262019
0.00288009
0.00317164
0.00349956
0.00386964
0.0042889
0.00476565
0.00530869
0.00592934
0.00663679
0.00744688
0.00837222
0.00947075
0.0106268
0.0130975
0.0156843
0.0283462
0.046488
0.119597
0.240041
0.000810126
0.000815991
0.000822109
0.000828322
0.000834718
0.000841351
0.000848244
0.000855433
0.000862951
0.000870847
0.000879163
0.000887954
0.00089727
0.000907178
0.000917726
0.000928993
0.000941023
0.000953884
0.000967614
0.000982288
0.000997935
0.00101472
0.00103272
0.00105205
0.00107284
0.00109525
0.00111947
0.00114571
0.00117429
0.00120548
0.00123976
0.00127752
0.00131949
0.00136628
0.00141877
0.00147803
0.00154521
0.00162166
0.00170891
0.0018086
0.0019222
0.0020512
0.00219724
0.00236192
0.00254677
0.00275318
0.00298246
0.00323614
0.00351628
0.00382581
0.00416857
0.00454945
0.00497438
0.00545006
0.00598426
0.00658534
0.00726209
0.00802495
0.00888395
0.00985566
0.0109856
0.0123181
0.0139136
0.0184009
0.0235139
0.0499502
0.0965275
0.229715
0.329651
0.00103304
0.00104231
0.00105203
0.001062
0.00107235
0.00108315
0.00109446
0.00110633
0.00111882
0.00113202
0.00114601
0.00116089
0.00117676
0.00119373
0.00121191
0.00123144
0.00125242
0.00127502
0.00129943
0.00132577
0.00135423
0.001385
0.00141827
0.00145421
0.00149306
0.00153511
0.0015807
0.0016302
0.00168417
0.00174316
0.00180783
0.0018789
0.00195723
0.00204367
0.00213925
0.00224507
0.00236228
0.00249205
0.00263557
0.00279402
0.00296846
0.00316028
0.0033703
0.00359958
0.00384973
0.00412253
0.00442014
0.00474532
0.00510154
0.00549309
0.00592491
0.00640293
0.00693366
0.00752399
0.00818182
0.00891459
0.00973152
0.0106439
0.0116691
0.0128459
0.0142857
0.0160872
0.0189094
0.0274316
0.0399701
0.0942699
0.200382
0.352016
0.357229
0.00139116
0.00140921
0.00142837
0.00144839
0.00146943
0.00149161
0.00151501
0.00153972
0.00156584
0.00159349
0.00162282
0.00165393
0.00168711
0.00172252
0.00176033
0.00180072
0.00184388
0.00188999
0.00193931
0.00199199
0.0020484
0.00210886
0.00217363
0.002243
0.00231728
0.00239679
0.00248189
0.00257302
0.00267059
0.00277506
0.00288705
0.00300721
0.0031362
0.00327473
0.00342359
0.00358358
0.00375556
0.0039404
0.00413902
0.00435244
0.00458181
0.00482852
0.00509425
0.00538122
0.00569165
0.00602772
0.00639282
0.00679093
0.00722668
0.00770538
0.00823275
0.00881524
0.00945923
0.0101711
0.0109593
0.0118304
0.0128016
0.0138934
0.0151588
0.0167188
0.0188161
0.0219716
0.0283914
0.0448352
0.0795388
0.182697
0.348753
0.391264
0.355956
0.00209518
0.00213205
0.00217126
0.00221243
0.00225587
0.00230174
0.00235013
0.00240112
0.00245482
0.00251139
0.00257093
0.00263371
0.00270039
0.00277109
0.00284596
0.00292514
0.00300875
0.00309695
0.00318986
0.00328764
0.00339027
0.00349778
0.00361033
0.00372808
0.00385121
0.00397991
0.00411438
0.00425489
0.00440172
0.00455517
0.00471571
0.00488379
0.00505988
0.00524455
0.00543848
0.00564246
0.0058574
0.00608434
0.00632455
0.00657952
0.00685104
0.00714131
0.00745296
0.00778928
0.00815384
0.00855196
0.0089858
0.00946027
0.00998088
0.0105535
0.011184
0.0118787
0.0126435
0.0134856
0.0144203
0.0154583
0.0166569
0.0180618
0.0198733
0.0223951
0.0263906
0.0335572
0.0517496
0.0835799
0.174232
0.333468
0.402344
0.388464
0.319253
0.00351568
0.00358802
0.00366465
0.00374492
0.00382908
0.00391726
0.00400945
0.00410568
0.00420597
0.00431035
0.00441888
0.00453148
0.00464781
0.004768
0.00489216
0.00502039
0.00515276
0.00528934
0.00543015
0.00557522
0.00572457
0.00587817
0.00603601
0.00619809
0.00636442
0.00653504
0.00671002
0.00688948
0.00707359
0.0072626
0.0074569
0.00765692
0.0078632
0.0080765
0.00829773
0.00852801
0.00876871
0.00902146
0.00928823
0.00957133
0.00987354
0.0101982
0.0105491
0.010931
0.011349
0.0118084
0.0123158
0.0128735
0.0134873
0.0141627
0.0149063
0.0157253
0.0166306
0.0176404
0.0188026
0.0201437
0.0218736
0.0240767
0.0275363
0.0328654
0.0430967
0.061946
0.102088
0.187583
0.325848
0.39531
0.395735
0.341383
0.268581
0.00625456
0.00637617
0.00650159
0.00662999
0.0067618
0.00689717
0.00703611
0.00717861
0.00732464
0.00747415
0.00762709
0.00778338
0.00794288
0.00810545
0.00827095
0.00843926
0.00861025
0.00878382
0.00895983
0.0091382
0.00931883
0.00950162
0.00968652
0.00987348
0.0100625
0.0102536
0.0104469
0.0106426
0.0108409
0.0110423
0.0112473
0.0114566
0.011671
0.0118917
0.01212
0.0123578
0.0126072
0.0128707
0.0131513
0.0134525
0.0137783
0.0141336
0.0145238
0.0149548
0.0154328
0.0159636
0.016555
0.0172076
0.0179275
0.0187233
0.0196094
0.0206093
0.0217578
0.0231271
0.0248443
0.0270179
0.0303881
0.0351332
0.0441242
0.0584089
0.0877682
0.134606
0.227119
0.318951
0.371858
0.371841
0.332253
0.270167
0.217233
0.0109652
0.0111234
0.0112847
0.0114478
0.011613
0.0117804
0.0119498
0.012121
0.0122939
0.0124683
0.012644
0.0128207
0.0129985
0.0131769
0.0133558
0.013535
0.0137145
0.013894
0.0140734
0.0142527
0.0144319
0.0146107
0.0147894
0.0149681
0.0151468
0.0153258
0.0155053
0.0156859
0.0158681
0.0160523
0.01624
0.0164318
0.0166296
0.0168356
0.0170521
0.017282
0.0175286
0.0177956
0.0180874
0.0184088
0.0187651
0.0191625
0.0196071
0.0201065
0.0206648
0.0212927
0.0219938
0.0227747
0.0236553
0.0246676
0.0258639
0.027333
0.0291635
0.0316563
0.0350592
0.0401905
0.0492181
0.0631073
0.0902298
0.131096
0.205357
0.28664
0.324676
0.340508
0.326929
0.291235
0.2466
0.203854
0.169349
0.0180443
0.0182122
0.018381
0.0185487
0.0187158
0.0188825
0.0190484
0.0192135
0.0193776
0.0195405
0.0197017
0.0198612
0.0200193
0.0201748
0.0203282
0.0204797
0.0206291
0.0207767
0.0209224
0.0210671
0.0212099
0.0213513
0.0214921
0.0216331
0.0217734
0.0219149
0.022057
0.0222021
0.0223501
0.0225043
0.0226658
0.0228354
0.0230159
0.0232101
0.0234218
0.023655
0.0239144
0.0242051
0.0245329
0.0249038
0.0253244
0.0258022
0.0263431
0.0269614
0.027656
0.0284674
0.0293791
0.0304645
0.0318073
0.0335188
0.0357639
0.0388376
0.0430016
0.049509
0.0587606
0.0758814
0.103142
0.149011
0.220317
0.294793
0.324174
0.322725
0.301235
0.261682
0.229201
0.201508
0.173904
0.14804
0.126656
0.0282945
0.028427
0.028558
0.0286872
0.0288152
0.0289415
0.0290654
0.0291866
0.0293047
0.0294184
0.0295291
0.0296351
0.0297379
0.0298364
0.0299311
0.0300215
0.0301079
0.0301905
0.0302696
0.0303467
0.0304208
0.0304935
0.0305657
0.0306391
0.0307123
0.0307896
0.0308689
0.0309556
0.0310477
0.0311522
0.0312703
0.0314076
0.0315697
0.031763
0.0319946
0.0322708
0.0325983
0.0329841
0.033436
0.033961
0.034569
0.0352737
0.0360842
0.0370503
0.0381553
0.0395519
0.0411559
0.0434924
0.0467454
0.0512406
0.057507
0.0665059
0.0794718
0.0993888
0.130671
0.18864
0.256418
0.321894
0.34495
0.335089
0.294561
0.229148
0.185744
0.16217
0.147766
0.134682
0.120075
0.104828
0.0913924
0.0420852
0.0422284
0.0423645
0.0424879
0.0426054
0.0427164
0.0428197
0.0429151
0.0430032
0.0430827
0.0431571
0.0432214
0.0432816
0.0433392
0.0433924
0.0434414
0.0434865
0.0435293
0.0435704
0.0436103
0.0436515
0.0436954
0.0437409
0.0437924
0.0438487
0.0439204
0.0439993
0.0441083
0.0442424
0.0444298
0.0446641
0.0449628
0.04533
0.0457696
0.0462914
0.0468981
0.0476004
0.0484135
0.0493501
0.05042
0.0516567
0.0530983
0.0548018
0.0569182
0.0594902
0.0627678
0.0680347
0.0773583
0.089191
0.104416
0.124317
0.151486
0.1887
0.239597
0.299976
0.341028
0.360609
0.342424
0.27889
0.19687
0.146619
0.121081
0.107803
0.101756
0.0982283
0.0936535
0.0864988
0.0772931
0.0679282
0.0736841
0.0739172
0.0741679
0.0743933
0.074621
0.0748348
0.0750283
0.0752034
0.0753401
0.0755262
0.075422
0.0753938
0.0753698
0.0753475
0.0753253
0.0753017
0.0752759
0.0752462
0.0752129
0.0751729
0.0751311
0.0750658
0.0749858
0.0748961
0.0748193
0.0748708
0.074868
0.0751225
0.075406
0.0759939
0.0766437
0.0775592
0.0786226
0.0798429
0.0813326
0.082972
0.0849595
0.0874557
0.0903882
0.0937636
0.0977501
0.102397
0.108047
0.114739
0.123246
0.133271
0.14596
0.157297
0.172594
0.193995
0.220892
0.25668
0.294873
0.330265
0.325669
0.282047
0.199897
0.143193
0.111476
0.0926289
0.0819667
0.0773071
0.076853
0.0782301
0.0797125
0.0797557
0.0766403
0.0705067
0.0620023
0.236021
0.237679
0.239381
0.240986
0.242576
0.244084
0.245521
0.246871
0.24813
0.249334
0.250416
0.251472
0.252408
0.253329
0.254168
0.254934
0.255684
0.256324
0.256999
0.257374
0.258278
0.257454
0.256827
0.256275
0.256627
0.256361
0.256142
0.253983
0.252712
0.251324
0.249911
0.250353
0.247038
0.245459
0.244048
0.237991
0.234789
0.235139
0.233133
0.229291
0.224092
0.217627
0.209915
0.200788
0.190067
0.177346
0.162292
0.144353
0.123256
0.0988284
0.0731613
0.0592644
0.065159
0.0794388
0.0853432
0.0822421
0.0768071
0.0733375
0.0729733
0.0813183
0.0901348
0.101931
0.112776
0.122
0.127748
0.12907
0.125692
0.116701
0.100102
0.000248288
0.000248711
0.000249128
0.000249566
0.000249994
0.000250682
0.000251699
0.000252626
0.000253326
0.000253898
0.000254574
0.000255163
0.000256611
0.000258445
0.000259856
0.00026032
0.000261408
0.000262617
0.000263024
0.00026377
0.000263636
0.000263683
0.000263816
0.000264599
0.000265578
0.000266489
0.000267261
0.000267338
0.000266733
0.000267064
0.000267645
0.000268738
0.000269812
0.000269649
0.000269667
0.00026909
0.000268987
0.000268782
0.000268209
0.00026823
0.000268146
0.00026804
0.000267895
0.000267144
0.000266408
0.000265844
0.000265148
0.000263919
0.000262232
0.000262253
0.000262567
0.000262822
0.000262749
0.000262592
0.000262043
0.000261264
0.000260894
0.000260666
0.000260519
0.000249601
0.000250011
0.00025048
0.000251043
0.000251824
0.000252662
0.000253245
0.00025369
0.000254112
0.000254693
0.000255448
0.000256487
0.000258496
0.00025972
0.000260467
0.000261023
0.000262211
0.000263075
0.000263541
0.00026397
0.00026397
0.000263937
0.000264165
0.000265029
0.000265959
0.000266873
0.000267565
0.000267679
0.000267121
0.000267409
0.000268046
0.000269046
0.000270131
0.000270083
0.000270199
0.000269894
0.000269655
0.000269519
0.00026902
0.000268872
0.000268969
0.000268864
0.000268812
0.000268498
0.000267963
0.000267314
0.000266748
0.000265996
0.000264828
0.000263719
0.000263325
0.000263541
0.000263753
0.000263662
0.000263563
0.000263388
0.000263111
0.000262828
0.000262432
0.0002519
0.000252353
0.000252888
0.000253396
0.000253898
0.000254273
0.000254549
0.000254882
0.000255431
0.000256242
0.000257375
0.00025902
0.000260303
0.000260965
0.000261444
0.000262206
0.000263468
0.000264037
0.000264447
0.000264691
0.000264577
0.000264743
0.000265128
0.000266022
0.000266931
0.000267868
0.000268545
0.000268673
0.000268034
0.000268314
0.000268977
0.000269871
0.000270992
0.00027107
0.00027126
0.000271189
0.000271063
0.000270861
0.00027066
0.000270267
0.000270345
0.000270422
0.000270291
0.000270227
0.000269929
0.000269638
0.000269072
0.000268434
0.000267486
0.000266689
0.000265728
0.000265466
0.000265158
0.000265116
0.000265262
0.0002651
0.000265047
0.000265021
0.00026503
0.000254668
0.000254982
0.000255338
0.000255582
0.000255851
0.000256105
0.000256491
0.000257103
0.000258012
0.000259167
0.00026044
0.0002616
0.000262242
0.000262678
0.000263307
0.000264385
0.000265225
0.000265591
0.000265837
0.00026592
0.000265995
0.000266239
0.000266825
0.000267732
0.000268586
0.00026953
0.000270091
0.000270288
0.000269779
0.00027
0.000270752
0.000271499
0.000272601
0.000272913
0.000273213
0.000273198
0.000273124
0.00027297
0.000272838
0.000272576
0.000272579
0.000272553
0.000272621
0.00027257
0.000272586
0.000272208
0.000272067
0.000271653
0.000271149
0.000270412
0.000269505
0.0002689
0.000268474
0.000268267
0.00026834
0.000267936
0.000267899
0.000268112
0.000267978
0.000257773
0.000257973
0.00025823
0.000258446
0.000258801
0.000259259
0.000259936
0.000260813
0.000261843
0.000262882
0.000263763
0.000264369
0.000264747
0.00026531
0.000266188
0.000267133
0.000267577
0.000267765
0.000267946
0.000268047
0.000268265
0.000268649
0.000269307
0.000270179
0.000271003
0.000271962
0.000272499
0.000272722
0.000272267
0.000272492
0.000273272
0.000273955
0.000275083
0.000275526
0.000275945
0.000275977
0.000275894
0.000275809
0.000275709
0.000275534
0.000275688
0.000275844
0.000275775
0.000275912
0.00027575
0.000275751
0.000275691
0.000275328
0.000275226
0.000274511
0.000274336
0.000273814
0.000273318
0.000272902
0.000272568
0.000272478
0.000271918
0.000271833
0.000271974
0.000262061
0.000262102
0.000262487
0.000262821
0.000263365
0.000263988
0.000264764
0.000265581
0.000266372
0.000267021
0.000267501
0.000267886
0.000268374
0.000269153
0.00027007
0.000270586
0.00027079
0.000270876
0.000271066
0.000271251
0.000271593
0.000272071
0.000272793
0.000273603
0.000274422
0.000275386
0.000275906
0.000276153
0.000275763
0.000275998
0.00027681
0.000277439
0.000278589
0.000279153
0.000279659
0.000279885
0.000279948
0.000279789
0.000279728
0.000279784
0.000279979
0.000280053
0.000280185
0.000280264
0.000280424
0.000280238
0.000280322
0.000279905
0.000279782
0.000279629
0.000279733
0.000279148
0.000278717
0.000278463
0.000278561
0.000278507
0.000278294
0.000278189
0.000277805
0.000267809
0.000267858
0.000268363
0.000268766
0.00026933
0.000269886
0.00027049
0.000271023
0.000271496
0.000271879
0.000272254
0.000272713
0.000273347
0.000274187
0.000274772
0.00027507
0.000275189
0.000275097
0.00027536
0.000275646
0.000276083
0.000276645
0.000277358
0.000278113
0.000278941
0.000279891
0.0002804
0.00028067
0.000280347
0.000280601
0.00028145
0.000282043
0.000283223
0.00028392
0.000284504
0.000284894
0.000285128
0.000285196
0.000285227
0.00028527
0.000285494
0.000285536
0.000285769
0.000285598
0.00028581
0.000286064
0.000285982
0.000286079
0.000285754
0.000285626
0.00028561
0.000285456
0.000285302
0.000285163
0.00028534
0.000285149
0.000285121
0.00028535
0.000284902
0.000275207
0.000275463
0.000275697
0.000276008
0.000276484
0.000276818
0.000277217
0.000277581
0.000277919
0.000278288
0.000278699
0.000279224
0.000279975
0.000280622
0.000280999
0.000281111
0.000280819
0.000280829
0.000281224
0.000281603
0.000282108
0.000282686
0.000283402
0.000284101
0.000284957
0.000285887
0.000286393
0.000286688
0.000286439
0.000286725
0.000287614
0.000288176
0.000289374
0.0002902
0.000290866
0.000291391
0.000291786
0.00029206
0.000292243
0.000292382
0.000292625
0.000292912
0.000293215
0.000293458
0.000293325
0.000293467
0.000293373
0.000293223
0.000293188
0.000293428
0.000292968
0.000293192
0.000292983
0.000293255
0.000292928
0.000292917
0.00029286
0.00029289
0.000292922
0.000284587
0.000284873
0.000284989
0.000284953
0.000284903
0.000285297
0.000285675
0.000285804
0.000286148
0.000286402
0.000286862
0.000287668
0.000288382
0.000288782
0.000288677
0.000288296
0.000288199
0.000288519
0.000288937
0.00028931
0.000289834
0.00029045
0.000291096
0.000291753
0.000292646
0.000293539
0.000294047
0.000294371
0.000294184
0.000294516
0.000295454
0.000296015
0.000297243
0.00029822
0.000298999
0.000299661
0.000300211
0.000300684
0.000301051
0.000301349
0.0003017
0.000302124
0.000302553
0.00030299
0.000303346
0.000303683
0.000304022
0.000304177
0.000304394
0.000304688
0.000304803
0.000305264
0.000304677
0.000305058
0.000304253
0.000304281
0.00030496
0.000304664
0.000304512
0.000296719
0.000296689
0.000296841
0.000296379
0.00029656
0.000296735
0.000296796
0.000296782
0.000296736
0.000297603
0.000298648
0.000299144
0.000299102
0.000298308
0.000298311
0.000298425
0.000298231
0.000298604
0.000298892
0.000299358
0.000299932
0.000300503
0.000301065
0.000301712
0.000302659
0.000303505
0.000304028
0.000304378
0.000304277
0.000304663
0.000305654
0.000306218
0.000307449
0.000308563
0.000309472
0.000310276
0.000310982
0.000311655
0.000312245
0.000312737
0.000313248
0.000313844
0.000314441
0.000315051
0.000315649
0.000316228
0.000316834
0.000317343
0.000317831
0.000318331
0.000318778
0.000319314
0.000319668
0.000320355
0.000319735
0.000320245
0.000319478