/*--------------------------------*- C++ -*----------------------------------*\
| =========                 |                                                 |
| \\      /  F ield         | OpenFOAM: The Open Source CFD Toolbox           |
|  \\    /   O peration     | Version:  2312                                  |
|   \\  /    A nd           | Website:  www.openfoam.com                      |
|    \\/     M anipulation  |                                                 |
\*---------------------------------------------------------------------------*/
FoamFile
{
    version     2.0;
    format      ascii;
    arch        "LSB;label=32;scalar=64";
    class       volScalarField;
    location    "1600";
    object      k;
}
// * * * * * * * * * * * * * * * * * * * * * * * * * * * * * * * * * * * * * //

dimensions      [0 2 -2 0 0 0 0];

internalField   nonuniform List<scalar> 
76025
(
0.00196586
0.0019647
0.00196389
0.00196262
0.00196047
0.00195859
0.00195565
0.00195401
0.00195241
0.00195176
0.00195079
0.0019502
0.00194926
0.00194873
0.00194788
0.00194712
0.00194594
0.00194504
0.00194329
0.00194247
0.0019415
0.00194063
0.0019396
0.00193846
0.00193695
0.00193596
0.00193473
0.00193286
0.0019311
0.00192951
0.00192778
0.00192683
0.00192555
0.00192444
0.00192341
0.00192221
0.00192148
0.00192079
0.00192132
0.00192336
0.00192592
0.00193146
0.00193733
0.00194702
0.00195707
0.00197211
0.00198711
0.00200669
0.00202806
0.00205226
0.00207916
0.00210852
0.00214046
0.00217175
0.00221099
0.0022482
0.00229005
0.00233837
0.00238848
0.00245627
0.00252053
0.00260806
0.00273119
0.00285417
0.00304403
0.00322195
0.00342468
0.00361785
0.00391811
0.00197925
0.00197713
0.00197533
0.00197395
0.0019723
0.00197104
0.0019691
0.00196737
0.00196558
0.00196401
0.00196255
0.00196143
0.00196036
0.00195953
0.00195918
0.00195851
0.001958
0.00195712
0.00195584
0.00195465
0.00195263
0.00195145
0.00195114
0.00194955
0.00194811
0.00194698
0.00194724
0.00194734
0.00194755
0.00194763
0.00194761
0.00194789
0.00194856
0.00194966
0.00195124
0.00195355
0.00195597
0.00195954
0.00196371
0.00196942
0.00197627
0.00198499
0.00199522
0.00200781
0.00202181
0.00203877
0.00205647
0.00207797
0.00209889
0.00212437
0.00214884
0.0021797
0.00220912
0.00224712
0.00228372
0.00232879
0.00237608
0.00243269
0.00249719
0.00257485
0.00267022
0.00279357
0.00293402
0.00309979
0.00330659
0.00347745
0.00377099
0.00398648
0.00449476
0.00199611
0.00199604
0.00199456
0.00199271
0.00199065
0.00198896
0.00198741
0.00198583
0.0019845
0.00198327
0.00198193
0.00198105
0.00197989
0.00197873
0.00197586
0.00197543
0.00197522
0.00197494
0.00197561
0.00197316
0.001974
0.00197453
0.00197488
0.00197492
0.00197551
0.00197573
0.00197658
0.00197802
0.00197961
0.00198147
0.00198335
0.00198561
0.00198797
0.00199097
0.00199422
0.00199838
0.00200303
0.00200888
0.00201554
0.0020238
0.00203305
0.00204411
0.00205627
0.00207041
0.00208569
0.00210321
0.0021219
0.00214322
0.00216599
0.00219231
0.00222119
0.00225463
0.00229061
0.00233214
0.00237527
0.00242675
0.00248046
0.00254799
0.00262082
0.00271791
0.00282912
0.00296904
0.00312973
0.00331812
0.00354174
0.00376194
0.00409301
0.00436361
0.00493575
0.00201704
0.00201549
0.00201504
0.00201521
0.00201459
0.00201335
0.00201179
0.0020103
0.00200857
0.00200669
0.00200583
0.00200304
0.00200352
0.00200155
0.00200239
0.00200291
0.00200338
0.00200384
0.00200463
0.00200522
0.00200613
0.00200715
0.00200842
0.00200973
0.00201127
0.00201287
0.00201459
0.00201659
0.00201881
0.00202141
0.0020243
0.00202783
0.00203176
0.0020365
0.00204172
0.00204791
0.00205468
0.00206262
0.00207129
0.00208147
0.00209245
0.00210506
0.00211843
0.00213375
0.00215008
0.00216911
0.00218958
0.00221398
0.00224053
0.00227226
0.00230656
0.00234599
0.00238724
0.00243422
0.00248302
0.00254089
0.00260351
0.00268224
0.00277279
0.00289286
0.00302801
0.00319888
0.00338435
0.00361117
0.00386295
0.0041374
0.00453279
0.00489459
0.00565008
0.00203979
0.0020402
0.00203838
0.00203856
0.00203877
0.00203678
0.00203611
0.00203609
0.00203381
0.00203198
0.00203061
0.00203094
0.00203136
0.00203176
0.00203249
0.00203334
0.00203435
0.00203548
0.0020369
0.00203842
0.00204016
0.00204208
0.00204432
0.00204674
0.00204943
0.00205237
0.00205559
0.00205916
0.00206305
0.00206733
0.00207197
0.00207722
0.00208284
0.00208922
0.00209619
0.00210421
0.00211292
0.00212278
0.00213318
0.00214488
0.00215712
0.00217092
0.0021858
0.00220303
0.00222238
0.00224495
0.00227059
0.00230043
0.00233398
0.00237186
0.00241311
0.00245751
0.00250494
0.0025568
0.00261309
0.00267982
0.00275613
0.00285299
0.00296749
0.00311251
0.00327182
0.0034669
0.00367655
0.00394197
0.00422831
0.00459013
0.00506239
0.00558093
0.00647231
0.00207431
0.00207517
0.00207558
0.00207655
0.00207419
0.00207265
0.00207201
0.00207369
0.00207025
0.00207184
0.00207357
0.00207487
0.00207601
0.00207717
0.00207837
0.00207958
0.00208089
0.00208227
0.00208378
0.00208552
0.00208749
0.00208971
0.00209224
0.00209513
0.00209834
0.00210195
0.00210584
0.00211015
0.00211473
0.00211981
0.00212529
0.00213145
0.00213815
0.00214568
0.00215394
0.0021633
0.0021734
0.00218487
0.00219703
0.002211
0.0022259
0.00224327
0.00226244
0.0022848
0.00230996
0.00233869
0.00237107
0.00240742
0.00244751
0.0024909
0.00253739
0.00258618
0.00263954
0.00269811
0.00276555
0.00284639
0.0029428
0.00306201
0.00320246
0.00336931
0.00355342
0.00377534
0.00402485
0.00434321
0.00469849
0.00517694
0.00575881
0.00647193
0.00749466
0.00211244
0.00211488
0.00211698
0.00211871
0.00212
0.00212078
0.00212146
0.00212255
0.00212281
0.00212345
0.00212445
0.00212547
0.00212658
0.00212783
0.00212937
0.00213119
0.0021333
0.00213566
0.00213817
0.00214093
0.00214392
0.00214721
0.00215079
0.00215483
0.00215928
0.0021643
0.00216971
0.00217558
0.00218171
0.00218824
0.0021952
0.00220266
0.00221074
0.00221953
0.00222922
0.00224001
0.00225182
0.00226531
0.00227995
0.002297
0.00231551
0.00233723
0.00236101
0.00238843
0.00241875
0.00245299
0.00249113
0.00253327
0.00257912
0.00262817
0.00268077
0.0027369
0.00280011
0.00287124
0.00295554
0.00305612
0.00317542
0.00331858
0.0034831
0.0036735
0.00388876
0.00415187
0.00446004
0.00485397
0.00531308
0.00593969
0.00666809
0.00762591
0.00878084
0.00216003
0.00216216
0.00216577
0.00216916
0.00217216
0.00217484
0.00217716
0.00217934
0.00218136
0.00218337
0.00218549
0.00218761
0.00218975
0.00219183
0.00219395
0.00219615
0.00219857
0.00220133
0.00220445
0.002208
0.00221197
0.00221638
0.00222118
0.00222647
0.00223217
0.00223845
0.00224516
0.00225234
0.00225987
0.00226785
0.00227637
0.00228541
0.00229535
0.0023061
0.00231831
0.00233179
0.00234696
0.00236391
0.00238256
0.00240369
0.0024267
0.00245289
0.00248124
0.00251342
0.00254886
0.00258888
0.0026333
0.00268236
0.00273536
0.00279265
0.00285424
0.00292191
0.00299859
0.00308658
0.00319063
0.00331307
0.00345688
0.00362581
0.00381849
0.00404293
0.00430722
0.00463453
0.00503111
0.00553591
0.00615029
0.00696166
0.00789439
0.00911116
0.010376
0.00222433
0.00222784
0.00223133
0.0022346
0.00223766
0.00224058
0.00224341
0.0022462
0.00224908
0.00225209
0.0022553
0.00225863
0.00226209
0.00226562
0.0022692
0.00227288
0.00227665
0.00228067
0.00228495
0.00228956
0.00229451
0.00229975
0.00230532
0.00231128
0.00231777
0.00232486
0.00233271
0.00234113
0.00235044
0.0023604
0.0023715
0.00238335
0.00239663
0.00241082
0.00242678
0.00244391
0.00246301
0.00248367
0.00250662
0.00253196
0.00255997
0.00259125
0.00262565
0.00266434
0.00270718
0.00275502
0.00280775
0.00286541
0.00292751
0.00299522
0.00306847
0.00315103
0.00324461
0.00335385
0.00348134
0.00363086
0.00380524
0.00400889
0.00424363
0.00452526
0.00486697
0.0052951
0.00582245
0.00649187
0.00731189
0.00834244
0.00950608
0.0109465
0.0123638
0.00231421
0.00231615
0.00231871
0.0023216
0.00232473
0.00232805
0.00233146
0.00233492
0.00233842
0.00234207
0.00234586
0.00234987
0.00235393
0.00235812
0.00236237
0.0023668
0.0023715
0.00237662
0.00238224
0.00238835
0.00239502
0.00240224
0.00240991
0.00241799
0.00242642
0.00243521
0.00244462
0.00245452
0.00246552
0.00247749
0.00249092
0.00250569
0.00252217
0.00254012
0.00256006
0.00258152
0.00260519
0.00263065
0.00265879
0.00268939
0.00272331
0.00276062
0.00280198
0.00284801
0.00289917
0.00295584
0.00301833
0.00308626
0.00316009
0.00324102
0.00333018
0.00343213
0.00354873
0.00368561
0.00384458
0.00403163
0.00425034
0.00450807
0.00481396
0.0051899
0.00565289
0.00623187
0.00694448
0.00782785
0.00887881
0.0101316
0.0115022
0.013142
0.0145002
0.00241469
0.00241738
0.00242031
0.0024234
0.00242676
0.00243045
0.00243445
0.00243873
0.00244327
0.00244813
0.00245338
0.00245909
0.00246521
0.00247161
0.00247824
0.00248495
0.00249188
0.00249895
0.00250646
0.00251439
0.00252294
0.00253221
0.00254218
0.00255289
0.00256431
0.00257628
0.00258891
0.00260203
0.00261599
0.00263081
0.00264665
0.002664
0.00268294
0.00270395
0.00272722
0.00275278
0.00278096
0.00281155
0.00284511
0.00288148
0.00292157
0.00296535
0.00301379
0.0030674
0.00312697
0.00319302
0.0032662
0.00334664
0.00343615
0.00353598
0.00364938
0.00378028
0.00393196
0.00410948
0.00431695
0.00456233
0.00485248
0.00520069
0.00562314
0.00614381
0.00678077
0.00756101
0.00849541
0.00960322
0.0108666
0.0123076
0.0138439
0.0155697
0.017196
0.00253673
0.00254054
0.00254447
0.00254842
0.00255254
0.00255695
0.00256172
0.00256688
0.00257246
0.00257848
0.00258506
0.00259231
0.00260032
0.00260904
0.00261835
0.00262808
0.00263812
0.00264836
0.00265872
0.0026694
0.00268034
0.0026919
0.00270403
0.002717
0.00273078
0.00274556
0.0027614
0.00277853
0.00279687
0.00281673
0.002838
0.00286117
0.00288614
0.00291324
0.00294242
0.00297358
0.0030071
0.00304275
0.00308139
0.00312313
0.00316926
0.00322013
0.0032771
0.00334102
0.00341279
0.00349369
0.00358414
0.00368568
0.00379988
0.00392912
0.00407763
0.00424976
0.0044511
0.00468832
0.00497011
0.00530714
0.00571185
0.00620164
0.00679446
0.00750953
0.00836003
0.00935944
0.0105052
0.0118032
0.0132305
0.0148107
0.016427
0.0182955
0.0204742
0.00268855
0.00269367
0.00269902
0.00270439
0.00270993
0.00271572
0.00272182
0.00272826
0.00273512
0.00274244
0.0027504
0.00275906
0.0027686
0.00277911
0.00279049
0.00280273
0.00281548
0.0028288
0.00284238
0.00285642
0.00287079
0.00288578
0.00290149
0.00291822
0.00293616
0.00295536
0.00297604
0.00299812
0.0030215
0.00304621
0.00307232
0.00310006
0.00312971
0.00316155
0.00319599
0.00323292
0.00327328
0.00331671
0.00336464
0.00341704
0.00347585
0.00354151
0.0036158
0.00369949
0.00379364
0.00389933
0.00401683
0.0041483
0.00429576
0.00446474
0.00466192
0.00489574
0.00517525
0.00551088
0.00591392
0.00639674
0.00697286
0.00765625
0.00845819
0.00938644
0.0104436
0.0116288
0.0129357
0.0143655
0.0158903
0.0175362
0.019188
0.0214338
0.024929
0.00288104
0.00288778
0.00289484
0.00290194
0.00290925
0.0029168
0.0029246
0.00293266
0.00294111
0.00294995
0.00295948
0.00296974
0.002981
0.00299331
0.00300671
0.00302117
0.00303655
0.0030528
0.0030699
0.00308791
0.00310688
0.0031269
0.00314809
0.00317053
0.00319427
0.00321947
0.00324616
0.00327416
0.00330341
0.00333391
0.00336589
0.00339965
0.00343576
0.00347478
0.0035173
0.00356374
0.00361509
0.00367144
0.00373416
0.00380361
0.00388174
0.00396934
0.0040679
0.00417806
0.00430114
0.00443822
0.00459152
0.00476501
0.00496568
0.00520339
0.00548943
0.00583494
0.00625014
0.00674462
0.00732701
0.00800555
0.00878733
0.00967636
0.010674
0.0117781
0.0129857
0.014292
0.0156898
0.0171747
0.0187058
0.0203735
0.0221466
0.0256379
0.0324073
0.00312962
0.00313885
0.00314843
0.00315805
0.00316787
0.00317794
0.00318824
0.00319873
0.00320952
0.00322063
0.0032323
0.00324466
0.00325796
0.0032724
0.00328815
0.00330528
0.00332386
0.00334376
0.00336504
0.00338763
0.00341153
0.00343672
0.00346327
0.00349119
0.00352085
0.00355249
0.00358622
0.00362235
0.00366086
0.00370198
0.00374574
0.0037924
0.0038423
0.00389599
0.00395386
0.00401685
0.00408554
0.00416086
0.00424384
0.00433584
0.00443861
0.00455399
0.00468357
0.00482973
0.00499536
0.00518443
0.00540274
0.00565883
0.00596392
0.00633012
0.00676811
0.00728603
0.00788925
0.00858094
0.00936281
0.0102351
0.0111965
0.0122441
0.0133749
0.0145844
0.0158686
0.0172168
0.0186175
0.0200677
0.0215252
0.0233495
0.0257194
0.0325483
0.046047
0.00345306
0.00346587
0.00347917
0.00349255
0.00350621
0.0035202
0.00353449
0.00354902
0.00356387
0.00357907
0.00359477
0.00361115
0.00362846
0.00364698
0.00366699
0.00368874
0.00371246
0.0037382
0.00376607
0.00379606
0.00382824
0.00386251
0.00389908
0.00393805
0.00397944
0.00402336
0.00406986
0.00411913
0.00417129
0.00422653
0.00428506
0.00434724
0.00441349
0.00448455
0.00456104
0.00464419
0.00473514
0.00483557
0.00494735
0.00507279
0.005215
0.00537734
0.00556401
0.00578002
0.00603123
0.00632458
0.00666847
0.0070725
0.00754583
0.00809544
0.00872504
0.00943524
0.0102244
0.0110894
0.0120267
0.0130322
0.0141023
0.0152332
0.0164212
0.0176578
0.0189336
0.0202312
0.0215401
0.0228998
0.0243074
0.0270041
0.0312281
0.0449331
0.0720068
0.00388465
0.00390219
0.00392044
0.00393892
0.00395787
0.00397735
0.00399736
0.00401787
0.00403891
0.00406056
0.00408294
0.00410624
0.0041307
0.0041566
0.00418426
0.00421399
0.0042461
0.0042808
0.00431829
0.00435861
0.00440204
0.00444877
0.00449889
0.00455243
0.00460936
0.00466971
0.00473349
0.00480087
0.00487213
0.00494779
0.00502841
0.00511495
0.00520847
0.00531022
0.00542165
0.00554461
0.00568136
0.00583468
0.00600789
0.00620507
0.00643125
0.00669175
0.00699203
0.00733802
0.00773564
0.00819096
0.00870953
0.00929538
0.00995015
0.0106731
0.0114613
0.0123109
0.0132175
0.0141773
0.0151865
0.016242
0.01734
0.0184745
0.0196365
0.0208103
0.0219831
0.0231428
0.0242931
0.0256634
0.0273647
0.0325057
0.0409868
0.0671015
0.109668
0.00448069
0.00450566
0.00453163
0.00455803
0.00458517
0.00461316
0.00464205
0.00467185
0.00470264
0.00473452
0.00476768
0.00480232
0.00483874
0.00487726
0.00491824
0.00496206
0.00500908
0.00505973
0.00511451
0.00517369
0.0052375
0.00530622
0.00538008
0.00545933
0.00554418
0.00563487
0.00573169
0.00583513
0.00594576
0.00606459
0.00619265
0.0063316
0.00648318
0.00664942
0.00683265
0.00703565
0.00726174
0.00751464
0.00779859
0.00811818
0.0084783
0.00888308
0.00933709
0.00984214
0.0103998
0.0110117
0.0116773
0.0123951
0.0131622
0.0139758
0.0148325
0.0157298
0.016665
0.0176355
0.0186381
0.0196679
0.0207171
0.0217732
0.0228211
0.023842
0.0248363
0.025816
0.0268443
0.0288237
0.0316378
0.0414519
0.059416
0.102523
0.138117
0.00532567
0.00536395
0.00540402
0.00544521
0.00548792
0.00553237
0.00557868
0.00562696
0.00567739
0.00573019
0.00578562
0.0058441
0.0059059
0.00597178
0.00604226
0.00611788
0.00619915
0.00628663
0.00638082
0.00648224
0.00659134
0.00670858
0.00683438
0.0069692
0.0071135
0.00726777
0.00743261
0.0076087
0.00779693
0.00799839
0.00821446
0.00844685
0.00869743
0.00896821
0.00926149
0.00957983
0.00992592
0.0103026
0.0107124
0.0111578
0.0116407
0.0121622
0.0127231
0.0133234
0.0139625
0.0146405
0.0153542
0.0161018
0.0168826
0.0176954
0.0185385
0.0194104
0.0203078
0.0212261
0.0221581
0.0230936
0.0240181
0.0249138
0.0257682
0.0265736
0.0273779
0.0282435
0.0295166
0.0329468
0.0385456
0.0566581
0.0912772
0.136628
0.148729
0.00663368
0.00670003
0.00677029
0.00684371
0.00692091
0.00700219
0.00708795
0.00717869
0.0072747
0.00737627
0.00748379
0.00759768
0.00771834
0.00784626
0.00798195
0.00812596
0.00827879
0.00844097
0.00861295
0.00879515
0.00898793
0.00919158
0.00940635
0.00963247
0.00987017
0.0101197
0.0103813
0.0106554
0.0109424
0.011243
0.0115579
0.0118883
0.0122351
0.0125995
0.0129826
0.0133858
0.0138102
0.0142571
0.0147275
0.0152221
0.0157416
0.0162866
0.0168572
0.0174539
0.0180769
0.0187266
0.0194033
0.0201078
0.0208392
0.0215947
0.0223715
0.0231662
0.0239706
0.0247748
0.0255663
0.0263294
0.0270479
0.0277092
0.0283254
0.0289263
0.0296743
0.0307648
0.033177
0.0392086
0.0513768
0.0824769
0.12952
0.150462
0.149773
0.00888528
0.00901261
0.00914748
0.00928879
0.00943704
0.00959243
0.00975506
0.00992504
0.0101025
0.0102877
0.0104807
0.0106817
0.0108908
0.0111083
0.0113342
0.0115687
0.011812
0.0120642
0.0123254
0.0125956
0.0128748
0.0131631
0.0134602
0.0137661
0.0140804
0.0144032
0.0147341
0.015073
0.0154199
0.0157749
0.0161381
0.0165099
0.0168906
0.0172806
0.0176807
0.0180915
0.0185138
0.0189484
0.0193964
0.0198585
0.0203359
0.0208295
0.0213406
0.0218704
0.0224202
0.0229911
0.0235833
0.0241973
0.0248322
0.0254864
0.0261491
0.0268115
0.0274567
0.0280706
0.0286399
0.0291506
0.029603
0.0300086
0.0304505
0.0310305
0.0322465
0.0344137
0.0399558
0.0502932
0.0757059
0.119168
0.14504
0.151368
0.143761
0.0128637
0.0130586
0.0132619
0.0134722
0.0136899
0.013915
0.0141475
0.0143871
0.0146337
0.0148874
0.0151478
0.0154149
0.0156887
0.015969
0.0162557
0.0165486
0.0168475
0.0171522
0.0174623
0.0177777
0.0180979
0.0184225
0.0187511
0.0190832
0.0194185
0.0197563
0.0200963
0.020438
0.020781
0.0211252
0.0214704
0.0218167
0.0221641
0.0225131
0.0228641
0.023218
0.0235758
0.0239385
0.0243075
0.0246843
0.0250703
0.0254674
0.0258776
0.026303
0.026745
0.0272043
0.0276776
0.0281671
0.0286677
0.0291741
0.0296635
0.0301187
0.0305175
0.0308496
0.0311248
0.0313399
0.0315674
0.0318414
0.0324584
0.0336046
0.036431
0.0415582
0.052472
0.074465
0.110102
0.134652
0.145679
0.141921
0.131442
0.0186224
0.0188448
0.0190758
0.0193136
0.0195587
0.0198109
0.02007
0.0203354
0.0206068
0.0208837
0.0211658
0.0214525
0.0217433
0.0220378
0.0223353
0.0226353
0.0229374
0.0232408
0.0235451
0.0238498
0.0241542
0.0244578
0.02476
0.0250603
0.025358
0.0256528
0.0259439
0.0262311
0.0265138
0.0267919
0.0270652
0.0273335
0.0275973
0.0278566
0.0281124
0.0283656
0.0286178
0.0288703
0.0291251
0.0293839
0.0296484
0.0299221
0.0302076
0.0305067
0.0308184
0.0311383
0.031456
0.0317913
0.0321146
0.0324112
0.0326286
0.0327402
0.0327863
0.0327953
0.0327992
0.0328218
0.0332471
0.0337863
0.0355146
0.0386007
0.0452502
0.056498
0.0778319
0.103633
0.122458
0.133576
0.132759
0.125487
0.115776
0.0257642
0.0259647
0.0261735
0.0263885
0.02661
0.0268375
0.0270704
0.027308
0.0275496
0.0277946
0.0280421
0.0282915
0.0285418
0.0287921
0.0290418
0.0292901
0.0295363
0.0297799
0.0300202
0.0302567
0.0304888
0.0307156
0.0309367
0.0311517
0.0313602
0.0315615
0.0317553
0.0319409
0.0321185
0.0322869
0.0324443
0.0325938
0.0327372
0.032871
0.032999
0.0331232
0.0332454
0.0333672
0.0334908
0.0336165
0.0337459
0.0338887
0.0340442
0.0342085
0.0343689
0.0345045
0.034625
0.0346209
0.0345526
0.0344291
0.0342213
0.0339946
0.0338159
0.0337649
0.0338825
0.0342599
0.0355711
0.0380504
0.0433145
0.0517666
0.0670043
0.085928
0.0996206
0.110888
0.116994
0.117225
0.113137
0.106272
0.0980333
0.0332528
0.0334012
0.0335546
0.0337104
0.0338691
0.0340305
0.0341943
0.0343599
0.0345264
0.0346935
0.0348587
0.0350232
0.0351824
0.0353365
0.0354862
0.0356315
0.035772
0.0359076
0.0360406
0.0361663
0.036288
0.0363983
0.0365011
0.0365981
0.0366906
0.0367712
0.0368462
0.036907
0.0369653
0.0370056
0.0370045
0.0370395
0.0370761
0.0370583
0.0370541
0.0370505
0.0370473
0.0370444
0.037041
0.0370328
0.0370061
0.0369582
0.0368892
0.0367939
0.0366334
0.0364195
0.0361215
0.0357651
0.0353988
0.0350184
0.034744
0.0345083
0.0345755
0.0351306
0.0361421
0.0388344
0.0434673
0.0517026
0.0648615
0.0804634
0.0895152
0.0961675
0.098689
0.0983356
0.0978162
0.0960397
0.0922903
0.0867355
0.079783
0.0401044
0.0401666
0.0402319
0.0402947
0.0403588
0.0404237
0.0404894
0.0405576
0.0406199
0.0406809
0.0407247
0.0407792
0.0407504
0.0407433
0.0407381
0.0407345
0.0407308
0.0407324
0.0407788
0.0407415
0.040774
0.0406868
0.0406311
0.0405958
0.0406166
0.0405098
0.0405096
0.0403707
0.0403547
0.0401838
0.0401368
0.0400999
0.0400181
0.0399091
0.0397812
0.0396376
0.039478
0.0392979
0.0390946
0.0388541
0.038592
0.0382983
0.0379711
0.0376095
0.037197
0.036781
0.0362433
0.0357763
0.0353975
0.0351648
0.0353609
0.0358989
0.0374845
0.040127
0.0452968
0.0542342
0.0656577
0.0781695
0.085678
0.0894608
0.087618
0.082797
0.0789668
0.0775956
0.0772785
0.0762233
0.0735144
0.0690238
0.0631506
0.043478
0.0434672
0.0434899
0.0434042
0.0433719
0.0433419
0.0433384
0.0433884
0.0432826
0.0432143
0.0431774
0.043205
0.0430629
0.0430065
0.0430056
0.0430315
0.0430111
0.0429596
0.0428893
0.0428002
0.0427018
0.0425875
0.0424635
0.0423333
0.0421999
0.0420557
0.0419089
0.0417532
0.0415981
0.0414335
0.0412688
0.0411008
0.0409228
0.0407317
0.0405179
0.0402758
0.0399918
0.0396486
0.039257
0.0388058
0.0383196
0.0377714
0.0372341
0.0366617
0.0361237
0.0355942
0.0353847
0.0355769
0.0360332
0.0373006
0.0395412
0.0432875
0.0486044
0.0562787
0.0655724
0.0735992
0.0809071
0.0819143
0.0775143
0.069243
0.062999
0.0599177
0.0593291
0.0600806
0.0609425
0.0609553
0.0592708
0.0557454
0.0507706
0.0424652
0.0423062
0.0422474
0.042197
0.0423146
0.0421846
0.042288
0.0423459
0.0423418
0.0422957
0.0422302
0.0421527
0.0420568
0.0419529
0.0418415
0.0417214
0.0415888
0.0414422
0.0412819
0.0411077
0.0409196
0.0407174
0.0405026
0.0402707
0.0400289
0.0397651
0.0394904
0.0391877
0.0388691
0.038524
0.0381553
0.0377634
0.0373515
0.036916
0.0364618
0.0360004
0.0355369
0.0351027
0.0347424
0.0344041
0.034189
0.0339633
0.0339997
0.0342239
0.0345673
0.0353795
0.0364203
0.0380287
0.0403589
0.0436965
0.047871
0.0532946
0.0593067
0.0651847
0.0678902
0.0642788
0.0559084
0.047419
0.0421972
0.0407358
0.0411207
0.0424909
0.0444617
0.04678
0.0487729
0.0495351
0.0487696
0.0462349
0.0422167
0.0325373
0.0327074
0.0328857
0.0330539
0.0332285
0.0333937
0.0335571
0.0337158
0.033865
0.0340106
0.0341443
0.0342763
0.0343986
0.0345174
0.0346318
0.034739
0.0348459
0.0349436
0.0350428
0.035136
0.0351249
0.0351963
0.0352729
0.0351942
0.0352937
0.0351927
0.035151
0.0351996
0.0351646
0.0351691
0.0349156
0.0348035
0.0347874
0.0347729
0.034463
0.0343449
0.0336907
0.033375
0.0334202
0.03327
0.0328891
0.0323281
0.0316015
0.0306944
0.0295802
0.0282103
0.0265188
0.024414
0.021825
0.0186015
0.0152789
0.0138658
0.0152768
0.0171873
0.0176191
0.0169533
0.0162369
0.0158026
0.0159159
0.0173264
0.0186281
0.0203339
0.0219083
0.0233015
0.0243683
0.024792
0.0247776
0.0239471
0.0221147
0.001903
0.00190422
0.00190576
0.00190722
0.00190884
0.00191229
0.00191632
0.00191947
0.00192108
0.00192223
0.00192319
0.00192488
0.0019299
0.00193689
0.001941
0.00194109
0.00194488
0.00194855
0.00195105
0.00195492
0.00195606
0.00195863
0.00196021
0.00196362
0.00196814
0.00197264
0.00197802
0.00198172
0.00198126
0.00198279
0.00198402
0.00198831
0.0019923
0.00199327
0.00199441
0.00199374
0.00199269
0.00199254
0.00199193
0.00199304
0.00199085
0.00199147
0.0019905
0.00198665
0.00198558
0.00198338
0.00198015
0.00197368
0.00197091
0.00197217
0.00197411
0.00197615
0.00197586
0.00197514
0.00197316
0.00197015
0.00196834
0.00196756
0.0019668
0.00191178
0.00191339
0.00191535
0.00191752
0.00192074
0.00192342
0.00192492
0.00192555
0.00192603
0.00192756
0.00192984
0.00193438
0.00194082
0.00194427
0.00194563
0.00194641
0.00195208
0.001955
0.00195763
0.00196035
0.00196149
0.00196386
0.00196611
0.00196998
0.00197425
0.0019787
0.00198422
0.00198765
0.00198724
0.00198857
0.00199024
0.00199405
0.00199816
0.00199933
0.00200102
0.00200097
0.00200037
0.00199987
0.00199959
0.00200069
0.00199992
0.00199994
0.0019995
0.00199809
0.00199601
0.0019942
0.00199193
0.00198812
0.00198399
0.00198254
0.00198145
0.0019829
0.00198505
0.00198582
0.00198466
0.0019844
0.00198332
0.00198239
0.00198109
0.00192491
0.00192651
0.00192847
0.00193015
0.00193149
0.00193208
0.00193246
0.00193312
0.00193487
0.00193802
0.00194231
0.00194769
0.00195103
0.00195261
0.00195355
0.00195677
0.00196176
0.00196396
0.00196619
0.00196834
0.00196976
0.00197243
0.00197518
0.00197908
0.00198312
0.00198769
0.00199321
0.00199654
0.00199622
0.00199745
0.00199957
0.00200292
0.00200708
0.00200845
0.00201079
0.00201084
0.00201042
0.00201016
0.0020103
0.00201122
0.00201131
0.00201139
0.00201135
0.00201088
0.00201013
0.00200869
0.00200749
0.00200527
0.00200214
0.00199913
0.00199791
0.00199507
0.00199536
0.00199725
0.00199843
0.00199902
0.00199951
0.0019984
0.00199829
0.00193998
0.00194114
0.00194231
0.00194229
0.00194327
0.00194374
0.00194515
0.00194741
0.00195083
0.00195485
0.00195889
0.00196186
0.00196337
0.00196446
0.00196671
0.00197141
0.00197464
0.00197616
0.00197811
0.00198007
0.00198195
0.00198496
0.00198798
0.00199175
0.00199561
0.00200036
0.00200586
0.00200908
0.00200888
0.00201016
0.00201262
0.00201559
0.00201991
0.00202159
0.00202436
0.00202545
0.0020254
0.00202527
0.00202525
0.0020267
0.00202689
0.00202692
0.00202682
0.00202678
0.00202638
0.00202652
0.00202512
0.00202445
0.00202232
0.00202075
0.00201755
0.00201739
0.00201687
0.002015
0.00201583
0.00201681
0.00201724
0.00201778
0.00201717
0.00196086
0.00196098
0.00196103
0.00196085
0.00196044
0.00196264
0.00196508
0.00196824
0.0019716
0.00197467
0.00197698
0.00197831
0.00197942
0.0019814
0.00198512
0.00198894
0.00199082
0.00199195
0.00199376
0.00199583
0.0019982
0.00200141
0.00200457
0.00200814
0.00201192
0.00201689
0.00202233
0.00202544
0.00202544
0.00202683
0.00202952
0.00203214
0.00203658
0.00203857
0.00204155
0.00204356
0.00204426
0.00204444
0.00204439
0.00204573
0.00204717
0.00204749
0.00204828
0.00204785
0.00204761
0.00204751
0.00204684
0.00204717
0.0020452
0.00204437
0.00204407
0.00204234
0.00204277
0.00204068
0.002041
0.00203964
0.00204063
0.0020406
0.00204026
0.00198466
0.00198333
0.00198446
0.0019843
0.00198636
0.00198876
0.00199139
0.00199388
0.00199621
0.00199805
0.00199888
0.00200015
0.00200199
0.00200516
0.00200898
0.00201125
0.00201227
0.0020129
0.00201487
0.00201718
0.00201992
0.00202324
0.00202635
0.00202967
0.00203342
0.00203859
0.0020439
0.00204694
0.00204717
0.00204871
0.00205166
0.00205405
0.00205866
0.00206109
0.0020643
0.00206701
0.00206861
0.00206943
0.00206963
0.0020709
0.00207265
0.00207421
0.00207404
0.00207371
0.00207379
0.00207368
0.00207479
0.0020744
0.00207451
0.00207381
0.00207383
0.00207387
0.00207229
0.00207135
0.00207116
0.00207186
0.00207058
0.00207206
0.00207363
0.00201589
0.00201555
0.00201484
0.00201716
0.0020189
0.00202062
0.00202234
0.00202433
0.00202595
0.00202552
0.0020271
0.00202878
0.00203157
0.00203521
0.00203755
0.00203843
0.00203844
0.00203957
0.00204177
0.00204437
0.00204737
0.00205061
0.00205361
0.0020567
0.00206052
0.00206589
0.00207107
0.00207407
0.00207457
0.00207627
0.00207944
0.00208159
0.0020862
0.002089
0.00209238
0.00209562
0.00209811
0.00209978
0.00210048
0.00210186
0.00210391
0.00210608
0.00210784
0.00210762
0.00210884
0.00210796
0.00210872
0.00210904
0.00210722
0.00210658
0.00210776
0.00210691
0.00210628
0.00210796
0.00210935
0.00211155
0.00211068
0.00211241
0.00211123
0.00205563
0.00205488
0.00205667
0.00205707
0.00205678
0.00205886
0.00206142
0.00206329
0.00206324
0.00206258
0.0020645
0.00206692
0.00207037
0.00207285
0.00207388
0.00207394
0.00207343
0.00207444
0.00207693
0.00207979
0.00208285
0.00208582
0.00208855
0.00209144
0.00209538
0.00210089
0.00210589
0.00210889
0.00210967
0.00211159
0.00211503
0.00211716
0.00212188
0.00212523
0.00212892
0.00213262
0.00213592
0.00213862
0.00214014
0.00214165
0.00214389
0.00214652
0.00214894
0.00215084
0.00215291
0.00215449
0.00215592
0.00215696
0.00215783
0.00215844
0.00216036
0.00215794
0.00215648
0.00215671
0.00215834
0.00215975
0.00216001
0.00216031
0.00216205
0.0021112
0.00210963
0.00211079
0.00210887
0.00210948
0.00211038
0.00211043
0.0021098
0.00210896
0.00210824
0.00211129
0.00211507
0.00211806
0.00211878
0.00211696
0.00211596
0.00211669
0.00211786
0.00212072
0.00212367
0.00212663
0.00212924
0.00213164
0.00213446
0.00213853
0.00214424
0.00214907
0.00215211
0.00215318
0.00215533
0.00215898
0.00216102
0.00216561
0.00216936
0.00217336
0.0021775
0.00218151
0.00218531
0.00218817
0.00219044
0.00219305
0.00219627
0.00219948
0.00220237
0.00220531
0.00220819
0.002211
0.00221339
0.00221563
0.0022177
0.00221998
0.00222185
0.00222411
0.00222244
0.00222491
0.00222217
0.00222274
0.00222245
0.00222209
0.00217003
0.00216903
0.00216858
0.00216763
0.00216772
0.0021691
0.00216758
0.00217048
0.00217102
0.00217241
0.00217689
0.00217796
0.00217534
0.00217291
0.00217208
0.0021728
0.0021721
0.0021745
0.00217777
0.00218057
0.0021828
0.00218469
0.00218664
0.0021894
0.00219365
0.00219937
0.00220401
0.00220712
0.00220846
0.00221093
0.0022149
0.00221723
0.00222197
0.00222631
0.00223084
0.00223552
0.0022401
0.00224469
0.00224876
0.00225213
0.00225538
0.00225909
0.00226317
0.0022671
0.00227092
0.00227474
0.00227855
0.00228223
0.00228564
0.00228892
0.00229203
0.00229517
0.00229829
0.00230113
0.00230408
0.0023066
0.00230876
0.00231202
0.00231373
0.00225024
0.00224875
0.00224547
0.00224621
0.00224462
0.00224841
0.0022514
0.00225162
0.00224811
0.0022481
0.0022449
0.00224256
0.00224144
0.00224124
0.0022424
0.00224243
0.0022426
0.00224567
0.00224799
0.00224991
0.00225141
0.00225282
0.00225436
0.0022571
0.0022617
0.00226733
0.00227182
0.00227507
0.00227673
0.00227952
0.0022837
0.00228613
0.00229069
0.00229538
0.00230043
0.00230586
0.00231134
0.00231695
0.00232242
0.00232732
0.00233187
0.00233653
0.00234157
0.00234677
0.00235185
0.00235694
0.00236196
0.00236701
0.00237186
0.0023766
0.00238105
0.00238542
0.0023896
0.00239382
0.00239779
0.002402
0.00240549
0.00241
0.00241318
0.002348
0.00234882
0.00234649
0.00234913
0.00234612
0.00234782
0.00234659
0.00233914
0.0023381
0.00233512
0.00233479
0.00233637
0.00233543
0.00233244
0.00233445
0.00233447
0.00233538
0.00233651
0.0023376
0.00233865
0.00233977
0.00234038
0.00234149
0.00234419
0.00234892
0.00235419
0.00235855
0.00236189
0.00236386
0.00236706
0.00237168
0.0023748
0.00237976
0.0023851
0.00239081
0.00239691
0.00240314
0.00240954
0.00241612
0.0024224
0.00242837
0.00243428
0.00244036
0.00244679
0.00245321
0.00245968
0.00246605
0.00247249
0.00247885
0.00248518
0.00249131
0.0024973
0.00250302
0.00250875
0.00251407
0.00251967
0.00252438
0.00253011
0.00253433
0.0024801
0.00247856
0.00247719
0.00247455
0.0024719
0.0024629
0.00245841
0.00245533
0.00245302
0.00245204
0.00245026
0.00245003
0.00245007
0.00244598
0.00244829
0.002448
0.00244592
0.00244817
0.00244887
0.00244894
0.00244723
0.0024483
0.00244949
0.00245224
0.00245676
0.00246171
0.00246614
0.00246963
0.00247198
0.00247565
0.00248051
0.00248388
0.00248881
0.00249455
0.0025011
0.00250839
0.00251605
0.00252391