/*--------------------------------*- C++ -*----------------------------------*\
| =========                 |                                                 |
| \\      /  F ield         | OpenFOAM: The Open Source CFD Toolbox           |
|  \\    /   O peration     | Version:  2312                                  |
|   \\  /    A nd           | Website:  www.openfoam.com                      |
|    \\/     M anipulation  |                                                 |
\*---------------------------------------------------------------------------*/
FoamFile
{
    version     2.0;
    format      ascii;
    arch        "LSB;label=32;scalar=64";
    class       volScalarField;
    location    "1600";
    object      nut;
}
// * * * * * * * * * * * * * * * * * * * * * * * * * * * * * * * * * * * * * //

dimensions      [0 2 -1 0 0 0 0];

internalField   nonuniform List<scalar> 
76025
(
0.00133673
0.0013371
0.00133789
0.00133801
0.0013387
0.0013388
0.00133867
0.00133911
0.0013401
0.00134129
0.00134265
0.00134404
0.00134561
0.00134704
0.00134823
0.0013492
0.00135079
0.00135183
0.00135325
0.00135488
0.00135733
0.00135886
0.00136108
0.00136291
0.00136409
0.00136624
0.00136738
0.00136828
0.00136911
0.00137042
0.00137236
0.00137368
0.00137619
0.00137804
0.00138086
0.00138343
0.00138549
0.00138856
0.0013912
0.00139865
0.00140208
0.00140901
0.00141182
0.00142036
0.00142389
0.00143493
0.00143987
0.00145328
0.00146057
0.00147505
0.00148457
0.00149938
0.0015128
0.00152741
0.00154501
0.00155902
0.00157682
0.00159506
0.00161499
0.00164231
0.001665
0.00170977
0.00175356
0.00182623
0.00189596
0.00201368
0.00208729
0.00210642
0.00221214
0.00134583
0.00134519
0.00134506
0.00134487
0.00134525
0.00134581
0.00134624
0.0013467
0.00134754
0.00134821
0.00134923
0.00135021
0.00135156
0.00135298
0.00135501
0.00135629
0.00135797
0.00135909
0.00135982
0.00136073
0.00136078
0.00136186
0.00136429
0.001365
0.00136655
0.0013684
0.00137285
0.00137647
0.00138026
0.00138347
0.00138685
0.00138991
0.00139348
0.00139718
0.00140243
0.001407
0.00141031
0.00141434
0.00141754
0.00142218
0.00142611
0.00143217
0.00143746
0.00144546
0.00145231
0.00146225
0.00147068
0.00148185
0.00149146
0.00150249
0.00151387
0.00152546
0.00154051
0.00155301
0.00157191
0.00158417
0.00160788
0.00162351
0.00165302
0.00167961
0.00172062
0.00177683
0.00183552
0.00193094
0.00200892
0.00208748
0.00215488
0.00222261
0.0023658
0.00135476
0.00135682
0.00135739
0.00135698
0.0013565
0.00135628
0.00135662
0.00135685
0.00135784
0.0013589
0.00136002
0.00136156
0.00136267
0.00136379
0.00136241
0.00136436
0.00136647
0.00136858
0.00137201
0.00137108
0.00137475
0.00137787
0.00138046
0.00138236
0.00138489
0.00138701
0.00139019
0.00139453
0.00139871
0.00140642
0.00140986
0.00141341
0.00141617
0.00141954
0.00142248
0.00142649
0.00142982
0.00143464
0.00143854
0.00144474
0.00144965
0.00145773
0.0014636
0.00147332
0.00147956
0.00149036
0.00149657
0.00150795
0.00151473
0.00152711
0.00153711
0.00155191
0.00156681
0.00158323
0.00160203
0.00161895
0.00164259
0.0016634
0.00169447
0.00173019
0.00177993
0.00184949
0.00192172
0.00202863
0.00210082
0.00220408
0.00228661
0.00237741
0.0025626
0.00136701
0.00136641
0.001368
0.00137053
0.00137216
0.00137272
0.00137285
0.00137296
0.00137282
0.0013726
0.0013739
0.00137267
0.00137582
0.00137557
0.00137902
0.00138186
0.00138441
0.0013868
0.00138924
0.0013915
0.00139425
0.00139728
0.00140113
0.00140471
0.0014114
0.00141421
0.0014165
0.00141897
0.00142139
0.00142465
0.00142771
0.00143132
0.00143467
0.00143892
0.00144283
0.00144796
0.00145249
0.00145858
0.0014637
0.00147092
0.00147662
0.00148478
0.00149037
0.00149899
0.00150425
0.00151371
0.00151946
0.00153105
0.00153948
0.00155498
0.00156839
0.00158744
0.00160455
0.00162414
0.00164329
0.00166307
0.0016871
0.00171181
0.00174902
0.00179775
0.00186258
0.0019484
0.00202887
0.00214842
0.00221238
0.00234213
0.00242143
0.00255093
0.0027891
0.00137716
0.00137849
0.00137742
0.00137944
0.00138181
0.00138127
0.00138259
0.00138467
0.0013837
0.00138297
0.00138287
0.00138494
0.00138723
0.00138918
0.00139155
0.00139446
0.00139716
0.00140113
0.00140573
0.00140964
0.00141285
0.00141566
0.00141875
0.00142193
0.00142574
0.00142947
0.00143302
0.00143674
0.00144045
0.00144449
0.00144846
0.00145295
0.00145705
0.0014619
0.00146634
0.00147207
0.00147718
0.00148388
0.00148912
0.00149625
0.00150105
0.00150836
0.00151281
0.00152129
0.00152688
0.00153834
0.00154663
0.00156286
0.00157536
0.00159687
0.0016129
0.00163623
0.00165188
0.00167443
0.00168989
0.00171484
0.00173666
0.00177425
0.00181855
0.00188825
0.0019604
0.00205878
0.00214161
0.00226577
0.0023359
0.00249624
0.00258906
0.00280869
0.00304344
0.00139449
0.00139657
0.00139833
0.00140117
0.00139975
0.00139924
0.0014
0.00140371
0.0014005
0.00140475
0.00140865
0.00141289
0.00141578
0.00142239
0.00142574
0.00142708
0.00143311
0.00143368
0.0014344
0.00143585
0.00143775
0.00143988
0.00144236
0.00144513
0.00144814
0.00145141
0.00145462
0.00145806
0.00146132
0.00146488
0.00146842
0.00147245
0.00147637
0.001481
0.0014854
0.00149093
0.00149584
0.00150237
0.00150758
0.00151513
0.00152082
0.00152992
0.00153704
0.00154896
0.00155877
0.0015746
0.00158774
0.00160835
0.00162469
0.00164863
0.00166478
0.00168732
0.00170062
0.00172373
0.00173896
0.00177131
0.0017991
0.00185479
0.00190871
0.00199705
0.00206689
0.00217996
0.00225531
0.00240239
0.00247922
0.00268918
0.00279962
0.00310039
0.00328709
0.00141055
0.00141449
0.00141773
0.00141973
0.00142141
0.00142297
0.00142587
0.00143023
0.00143224
0.00143282
0.00143851
0.00143986
0.00144093
0.00144261
0.00144445
0.00144623
0.001449
0.00145157
0.00145398
0.00145643
0.00145896
0.00146161
0.00146448
0.00146778
0.00147141
0.0014756
0.00147995
0.00148462
0.00148907
0.00149359
0.00149788
0.00150213
0.00150616
0.00151047
0.00151464
0.00151968
0.00152451
0.00153106
0.00153699
0.00154557
0.00155314
0.00156445
0.00157433
0.00158876
0.00160131
0.00161923
0.00163491
0.00165693
0.00167473
0.00169818
0.00171429
0.0017366
0.00175283
0.00178068
0.00180455
0.00184836
0.00188877
0.00195882
0.00201983
0.00211493
0.00218265
0.00230769
0.00238669
0.00256518
0.00266034
0.00292666
0.00305562
0.00341626
0.00357774
0.00143457
0.00143804
0.00144338
0.00144698
0.00145119
0.00145788
0.0014603
0.00146234
0.00146417
0.00146561
0.00146804
0.00147028
0.00147216
0.00147368
0.00147521
0.00147656
0.00147831
0.0014803
0.00148274
0.00148545
0.00148846
0.0014916
0.00149473
0.001498
0.00150124
0.00150486
0.00150852
0.00151247
0.00151624
0.00152021
0.0015241
0.00152813
0.00153241
0.00153729
0.00154279
0.00154943
0.0015566
0.00156532
0.00157392
0.00158461
0.00159457
0.0016073
0.00161859
0.00163332
0.0016468
0.00166496
0.00168237
0.00170524
0.0017256
0.00175062
0.00177147
0.00179863
0.00182429
0.0018606
0.00189735
0.00195041
0.00200252
0.00207838
0.00214405
0.0022416
0.00231793
0.00246078
0.00255938
0.00277714
0.00290052
0.00322737
0.00336553
0.00378179
0.00386067
0.00146083
0.00146319
0.00146573
0.00146887
0.00147174
0.00147531
0.00147865
0.00148161
0.00148445
0.00148721
0.0014902
0.00149329
0.00149634
0.00149918
0.00150183
0.00150423
0.00150653
0.00150879
0.00151118
0.00151379
0.00151663
0.00151972
0.00152299
0.00152646
0.00153019
0.0015342
0.00153858
0.00154308
0.00154793
0.00155292
0.00155834
0.00156403
0.00157034
0.00157723
0.00158475
0.00159301
0.00160167
0.0016112
0.00162086
0.00163196
0.00164296
0.00165616
0.0016689
0.00168491
0.00170123
0.00172206
0.00174389
0.00177043
0.0017962
0.00182605
0.00185418
0.00188821
0.0019229
0.00196632
0.00201268
0.00207106
0.00213304
0.00221195
0.00228872
0.00239483
0.00249824
0.00266318
0.00280336
0.00305782
0.00322746
0.00359317
0.0037307
0.00415682
0.00410034
0.0015082
0.00150652
0.0015061
0.00150698
0.00150858
0.00151086
0.00151351
0.00151624
0.00151896
0.00152172
0.00152444
0.00152729
0.00153004
0.00153279
0.00153546
0.00153814
0.00154089
0.0015439
0.0015471
0.0015506
0.00155425
0.00155826
0.00156233
0.00156659
0.00157077
0.00157507
0.00157949
0.00158402
0.00158917
0.0015948
0.00160111
0.0016082
0.00161585
0.0016243
0.00163326
0.001643
0.00165324
0.00166447
0.00167634
0.00168948
0.00170321
0.00171853
0.00173425
0.00175294
0.00177322
0.00179783
0.00182472
0.0018554
0.00188652
0.00192086
0.00195487
0.00199441
0.0020361
0.00208696
0.00214293
0.00221128
0.0022867
0.00237772
0.00247642
0.00260623
0.00274944
0.00294647
0.00314205
0.00342508
0.00364009
0.00399304
0.0041138
0.00447025
0.00426788
0.00153857
0.00154028
0.00154162
0.00154306
0.00154472
0.00154682
0.00154928
0.00155205
0.00155496
0.00155819
0.00156172
0.00156566
0.00156983
0.00157405
0.00157818
0.00158204
0.00158577
0.00158927
0.00159295
0.00159679
0.00160107
0.00160592
0.00161123
0.00161719
0.00162347
0.00163008
0.00163682
0.00164354
0.00165041
0.00165727
0.00166416
0.00167162
0.0016793
0.00168816
0.00169763
0.00170848
0.00172013
0.00173317
0.00174683
0.00176149
0.00177676
0.00179329
0.00181097
0.00183176
0.00185501
0.00188258
0.00191292
0.00194654
0.00198192
0.00202057
0.00206159
0.00210947
0.0021628
0.00222705
0.002299
0.0023854
0.00248148
0.00259795
0.00273108
0.00290056
0.00309127
0.00332902
0.00357042
0.00385747
0.00408361
0.00436842
0.00445025
0.0046636
0.00424203
0.00158261
0.00158468
0.00158644
0.00158817
0.00158995
0.00159198
0.00159438
0.00159715
0.0016003
0.0016038
0.00160774
0.00161224
0.00161746
0.00162321
0.00162947
0.00163575
0.00164209
0.0016481
0.00165377
0.00165915
0.00166422
0.00166942
0.00167464
0.00168039
0.00168641
0.00169311
0.00170036
0.00170859
0.00171735
0.00172696
0.00173698
0.00174808
0.00175951
0.00177207
0.00178483
0.00179837
0.00181193
0.0018259
0.00183978
0.00185409
0.00186923
0.00188599
0.00190511
0.00192801
0.00195446
0.00198602
0.00202107
0.00206053
0.00210303
0.0021498
0.00220125
0.00226076
0.00232877
0.00240937
0.00250224
0.00261341
0.0027418
0.00289799
0.00307884
0.0032954
0.00353028
0.00379278
0.00404187
0.00429288
0.00448947
0.00466118
0.00468678
0.00461227
0.00400884
0.00163807
0.00164043
0.00164269
0.00164485
0.00164704
0.0016493
0.00165173
0.00165438
0.00165728
0.0016605
0.00166409
0.00166818
0.00167294
0.00167855
0.00168481
0.00169176
0.00169882
0.0017061
0.00171317
0.00172023
0.00172708
0.00173406
0.00174105
0.00174849
0.00175642
0.00176488
0.00177402
0.00178364
0.00179352
0.00180372
0.00181432
0.00182556
0.00183744
0.00185019
0.00186375
0.00187793
0.00189281
0.00190803
0.00192405
0.00194103
0.00196037
0.0019828
0.00200954
0.00204126
0.0020778
0.00211943
0.00216405
0.00221188
0.00226131
0.00231506
0.00237563
0.00244831
0.00253586
0.00264276
0.00277048
0.00292307
0.00310076
0.00330685
0.00353526
0.0037829
0.00403156
0.00427582
0.00448608
0.00466833
0.00480446
0.00481927
0.00473104
0.00425441
0.00369015
0.00170671
0.00170962
0.00171255
0.0017154
0.00171824
0.00172105
0.00172382
0.00172661
0.00172948
0.00173245
0.0017358
0.00173955
0.00174408
0.00174946
0.00175572
0.00176277
0.00177023
0.00177798
0.00178584
0.00179395
0.00180237
0.00181135
0.00182094
0.00183118
0.00184207
0.00185354
0.00186566
0.0018776
0.00188932
0.00190039
0.00191126
0.00192202
0.00193343
0.00194578
0.00195963
0.00197504
0.00199252
0.00201189
0.00203372
0.00205808
0.00208629
0.00211868
0.00215572
0.00219714
0.00224233
0.00229037
0.00234013
0.00239194
0.00244799
0.00251389
0.00259572
0.00269922
0.00282714
0.00298125
0.0031608
0.00336464
0.00358896
0.00382716
0.00406958
0.0043036
0.00451765
0.00470008
0.00483899
0.00493112
0.00498615
0.00474266
0.00449943
0.00368125
0.00334001
0.00179324
0.00179712
0.00180109
0.00180503
0.00180898
0.0018129
0.00181671
0.00182039
0.001824
0.00182755
0.00183121
0.00183511
0.00183941
0.00184435
0.00185013
0.00185672
0.00186431
0.00187245
0.00188136
0.00189073
0.00190051
0.00191078
0.00192139
0.00193238
0.00194401
0.00195629
0.00196927
0.00198261
0.00199662
0.0020107
0.00202528
0.00204
0.00205565
0.00207241
0.00209101
0.00211192
0.00213556
0.00216205
0.0021916
0.0022244
0.00226096
0.00230153
0.00234586
0.00239396
0.00244559
0.00250091
0.00256086
0.00262868
0.00270996
0.00281157
0.00293854
0.00309314
0.00327403
0.00347766
0.00369834
0.0039288
0.00416054
0.0043828
0.00458759
0.00476269
0.00490623
0.0050003
0.00505397
0.00503784
0.00498487
0.00428767
0.00402257
0.00316351
0.0032845
0.00190292
0.00190803
0.00191334
0.00191872
0.00192415
0.00192962
0.00193503
0.00194028
0.00194539
0.00195035
0.00195527
0.00196025
0.0019654
0.00197091
0.00197705
0.0019839
0.00199191
0.00200092
0.00201117
0.00202257
0.00203507
0.00204853
0.00206303
0.00207852
0.00209499
0.00211216
0.0021301
0.00214861
0.00216784
0.00218743
0.00220757
0.00222805
0.00224926
0.0022714
0.00229497
0.00232048
0.00234843
0.00237925
0.00241339
0.00245121
0.00249341
0.00254062
0.0025937
0.00265371
0.00272174
0.00279945
0.00288964
0.00299662
0.0031249
0.00327742
0.00345395
0.00365111
0.00386282
0.0040815
0.00429868
0.00450556
0.00469474
0.00485792
0.00499156
0.00508558
0.00514235
0.00513585
0.00511066
0.00493815
0.00471648
0.0037638
0.0035514
0.00304934
0.00365611
0.00204175
0.00204828
0.00205509
0.00206207
0.00206921
0.00207647
0.0020838
0.00209108
0.00209829
0.00210541
0.00211248
0.00211963
0.00212693
0.00213459
0.00214279
0.0021517
0.00216162
0.00217268
0.00218509
0.00219883
0.00221414
0.00223106
0.00224966
0.00226957
0.00229065
0.00231265
0.00233545
0.00235886
0.00238297
0.00240779
0.00243358
0.00246057
0.00248918
0.0025197
0.0025526
0.00258824
0.00262706
0.00266973
0.00271683
0.00276929
0.00282866
0.00289653
0.00297429
0.00306337
0.00316508
0.00328112
0.00341343
0.00356339
0.00373069
0.00391282
0.00410491
0.00430066
0.00449294
0.00467474
0.00483961
0.00498195
0.00509746
0.00518064
0.00522892
0.00523389
0.00519491
0.00508967
0.0049981
0.00452569
0.00429692
0.0033548
0.00325229
0.00338833
0.0045094
0.00223039
0.00223911
0.00224813
0.00225734
0.0022668
0.00227647
0.00228634
0.00229633
0.00230643
0.00231661
0.00232695
0.00233752
0.00234847
0.00235995
0.00237218
0.00238536
0.0023997
0.00241547
0.00243304
0.00245247
0.00247394
0.00249729
0.00252253
0.00254966
0.00257858
0.00260914
0.00264118
0.00267467
0.00270945
0.00274591
0.00278393
0.00282424
0.0028669
0.00291252
0.00296148
0.00301417
0.00307141
0.003134
0.00320299
0.00327958
0.00336559
0.00346228
0.00357099
0.0036911
0.00382212
0.00396382
0.00411487
0.00427282
0.00443423
0.00459487
0.00474993
0.00489475
0.00502475
0.00513592
0.00522437
0.00528665
0.00531911
0.00531673
0.00527607
0.00519091
0.00505348
0.00486941
0.00466131
0.00406353
0.00383116
0.00309595
0.00329153
0.00411809
0.00520815
0.002471
0.00248437
0.00249833
0.00251274
0.00252769
0.00254318
0.00255921
0.00257577
0.00259286
0.00261052
0.00262878
0.00264781
0.00266764
0.00268871
0.00271125
0.00273547
0.00276156
0.00278972
0.00281996
0.00285249
0.00288735
0.0029245
0.00296403
0.00300595
0.00305022
0.00309675
0.0031454
0.00319611
0.00324866
0.00330303
0.00335926
0.00341765
0.00347843
0.00354196
0.00360864
0.00367899
0.00375365
0.00383332
0.00391869
0.00401025
0.00410834
0.00421252
0.00432273
0.00443835
0.00455763
0.00467941
0.00480019
0.00491729
0.00502829
0.00513037
0.00522048
0.00529582
0.00535313
0.00538934
0.00540079
0.00538422
0.00533504
0.00524835
0.00512122
0.00494744
0.00472216
0.00446271
0.00414665
0.00356138
0.00334547
0.00306474
0.00374203
0.00477266
0.00557296
0.0028469
0.00286695
0.00288812
0.00291032
0.00293373
0.00295839
0.00298448
0.00301226
0.00304176
0.00307303
0.00310611
0.00314114
0.00317795
0.00321665
0.00325736
0.00330024
0.00334537
0.00339286
0.00344269
0.00349496
0.00354933
0.00360558
0.00366352
0.00372296
0.00378368
0.00384545
0.00390808
0.00397134
0.00403516
0.0040995
0.00416436
0.00422981
0.00429593
0.00436287
0.00443083
0.00449999
0.00457055
0.00464264
0.00471629
0.00479135
0.00486749
0.00494411
0.00502036
0.00509502
0.00516715
0.00523608
0.00530034
0.00535852
0.00540836
0.0054468
0.00547124
0.00547921
0.00546693
0.0054312
0.0053678
0.00527379
0.00514333
0.00497371
0.00476352
0.00450425
0.00421186
0.00387693
0.00348922
0.00308594
0.00298674
0.00335101
0.0043291
0.00520745
0.00567168
0.00339127
0.00342883
0.00346843
0.00350987
0.00355304
0.00359785
0.00364427
0.00369227
0.00374182
0.00379284
0.00384532
0.00389902
0.00395312
0.0040076
0.00406249
0.00411778
0.0041735
0.00422962
0.00428617
0.00434304
0.0044004
0.00445827
0.00451647
0.00457484
0.00463316
0.00469121
0.00474879
0.00480567
0.00486168
0.00491665
0.00497049
0.00502312
0.00507447
0.00512452
0.00517325
0.00522062
0.00526657
0.00531099
0.0053537
0.00539439
0.00543266
0.00546794
0.00549954
0.0055266
0.00554828
0.00556284
0.00557052
0.00557023
0.00556039
0.00553943
0.0055025
0.0054465
0.00536623
0.00525867
0.00511932
0.00494738
0.00473499
0.00448718
0.00419914
0.0038696
0.00354617
0.00317629
0.00277649
0.00272371
0.00296056
0.00383271
0.00470568
0.00530839
0.00582622
0.00423607
0.00427739
0.00431939
0.00436191
0.004405
0.00444864
0.00449277
0.00453735
0.00458234
0.0046277
0.00467334
0.00471937
0.00476614
0.0048135
0.00486129
0.00490938
0.00495761
0.00500586
0.005054
0.00510188
0.00514937
0.00519633
0.00524259
0.00528797
0.00533229
0.00537533
0.00541688
0.00545671
0.00549459
0.00553033
0.00556372
0.00559456
0.00562268
0.00564792
0.00567012
0.00568913
0.00570479
0.00571689
0.00572521
0.00572943
0.00572912
0.00572386
0.00571312
0.00569632
0.00567248
0.00564063
0.00559805
0.00554663
0.00548408
0.00540868
0.00531273
0.00519177
0.00504003
0.0048555
0.00463701
0.00438834
0.00410014
0.00378993
0.00344342
0.00309244
0.00277167
0.00250924
0.0024273
0.00266044
0.00334822
0.00412789
0.00482651
0.00530997
0.00578939
0.0049902
0.00501261
0.00503718
0.00506357
0.00509167
0.00512132
0.00515232
0.00518449
0.00521766
0.00525165
0.00528631
0.00532145
0.00535694
0.00539264
0.00542839
0.00546402
0.00549938
0.00553429
0.00556859
0.0056021
0.00563465
0.00566605
0.00569609
0.00572459
0.00575133
0.00577608
0.00579862
0.00581869
0.00583605
0.00585045
0.00586158
0.00586918
0.00587309
0.00587296
0.0058686
0.00585984
0.00584648
0.0058283
0.00580507
0.00577641
0.00574183
0.00570129
0.00565451
0.00560082
0.00553883
0.00546641
0.00537922
0.00528613
0.0051776
0.00504952
0.00488622
0.00468103
0.00444644
0.00418547
0.00389712
0.00358853
0.00327375
0.0029242
0.00257264
0.0022959
0.00209965
0.00213425
0.00240052
0.00303049
0.00362942
0.00431859
0.00477419
0.00524575
0.00555334
0.0054483
0.00545468
0.00546354
0.00547458
0.00548765
0.00550257
0.00551913
0.0055371
0.00555628
0.00557644
0.00559734
0.00561876
0.00564043
0.0056621
0.00568355
0.00570458
0.005725
0.00574461
0.00576329
0.00578079
0.00579697
0.00581152
0.00582424
0.00583497
0.00584358
0.00584971
0.00585321
0.00585364
0.00585099
0.00584463
0.00583356
0.00581873
0.0058002
0.00577616
0.00574733
0.00571363
0.00567488
0.00563079
0.00558107
0.00552489
0.00546178
0.00539388
0.00532004
0.00523812
0.00514449
0.00503227
0.00490595
0.00473659
0.0045423
0.00432482
0.00407513
0.00380519
0.00352895
0.00324125
0.00294708
0.0026284
0.00231373
0.00206481
0.00187137
0.00183972
0.00196761
0.00231833
0.002751
0.00324999
0.00376805
0.00424662
0.00467155
0.00498606
0.00510748
0.00551517
0.00551322
0.00551286
0.00551386
0.0055162
0.00551978
0.00552447
0.00553017
0.00553664
0.00554373
0.00555089
0.00555838
0.00556473
0.00557033
0.00557523
0.00557939
0.00558275
0.00558519
0.00558747
0.00558787
0.00558766
0.00558446
0.00557924
0.00557237
0.00556452
0.00555286
0.00553963
0.00552159
0.00550238
0.00547661
0.00543726
0.00540708
0.0053753
0.00532519
0.00527588
0.00522284
0.00516531
0.00510248
0.00503337
0.0049562
0.00486687
0.00476439
0.00464917
0.0045191
0.00436724
0.00419336
0.00399701
0.00377892
0.00354562
0.00329265
0.00303779
0.00275954
0.00250205
0.00224352
0.0020007
0.00178871
0.00164866
0.00161455
0.00171858
0.00197662
0.00222463
0.00257909
0.00290987
0.00332575
0.00375706
0.00411957
0.00440803
0.00457359
0.00452312
0.00511593
0.0051079
0.005101
0.0050939
0.00508741
0.0050815
0.00507631
0.00507229
0.00506738
0.00506296
0.00505486
0.00505027
0.00502569
0.00500734
0.00499025
0.00497434
0.00495917
0.00494598
0.0049443
0.00492273
0.00491856
0.00488587
0.004861
0.00484092
0.00483434
0.00479687
0.0047845
0.00473845
0.00472064
0.00466504
0.00463655
0.00460781
0.00456547
0.00451299
0.00445166
0.00438175
0.00430286
0.00421382
0.00411397
0.00400069
0.00387749
0.00374241
0.0035961
0.00343595
0.00326364
0.00307838
0.00287254
0.00264862
0.0024124
0.00217193
0.0019569
0.00174399
0.00159123
0.00145807
0.00141318
0.00140331
0.00151309
0.00170846
0.00191525
0.00214955
0.0023456
0.0026925
0.00302146
0.00334154
0.00363735
0.00388248
0.00405074
0.00409037
0.00392723
0.00404252
0.00402682
0.00401808
0.00399062
0.00397371
0.00395788
0.0039477
0.00394802
0.00392074
0.00390117
0.0038878
0.00388698
0.00385608
0.00384088
0.003836
0.00383629
0.00382868
0.00381576
0.00379969
0.00378046
0.00375955
0.00373569
0.0037101
0.00368306
0.00365518
0.00362432
0.0035926
0.00355714
0.00352006
0.00347753
0.00343185
0.00338135
0.00332496
0.00326234
0.0031918
0.00311297
0.00302394
0.00292234
0.00281054
0.00268802
0.00255833
0.00241818
0.00227682
0.00212528
0.00197415
0.00181661
0.00165632
0.00147256
0.00131017
0.00119924
0.00113191
0.00111326
0.00112674
0.00118973
0.00129002
0.00142955
0.00163373
0.00176359
0.00193898
0.00219187
0.00243624
0.00266856
0.00293864
0.00319264
0.00340288
0.00357061
0.00365522
0.00361843
0.00341521
0.0022026
0.00217924
0.00216584
0.00215413
0.00215954
0.00214016
0.00214511
0.00214599
0.00214168
0.00213176
0.0021281
0.00212109
0.00211212
0.00210232
0.00209178
0.00208044
0.00206795
0.0020542
0.00203924
0.00202315
0.00200579
0.00198774
0.00196893
0.00194877
0.00192742
0.00190079
0.00187469
0.00183981
0.0018032
0.00175762
0.00170953
0.00165482
0.00159702
0.00153615
0.00147114
0.00140581
0.0013378
0.00126805
0.00120185
0.00113613
0.00107622
0.00101385
0.0009629
0.000918737
0.00087257
0.000845298
0.000817895
0.000827455
0.000849369
0.00088582
0.000933701
0.000995905
0.00107353
0.0011579
0.00127374
0.00131843
0.00140731
0.00141326
0.00143757
0.00161231
0.00185663
0.00210191
0.00231501
0.00251761
0.0026858
0.0027689
0.00279309
0.00272867
0.00258703
0.000403696
0.000405083
0.0004066
0.000408034
0.000409653
0.000411179
0.000412784
0.000414417
0.000415974
0.000417531
0.000419002
0.000420475
0.000421912
0.000423287
0.00042469
0.000426038
0.000427408
0.000428735
0.00043004
0.000431701
0.000429918
0.000433049
0.000435998
0.00043499
0.000436852
0.000434806
0.000434147
0.00043905
0.00044038
0.000442925
0.00043903
0.000435448
0.000440881
0.000443347
0.000437999
0.000446073
0.000435095
0.000426343
0.000431178
0.00043447
0.000434429
0.000432205
0.000428169
0.000422304
0.000414322
0.000403865
0.00038999
0.000371617
0.00034781
0.000315107
0.000287176
0.000291971
0.000322353
0.000334678
0.000327372
0.000314527
0.000308919
0.000306458
0.000312421
0.000332256
0.000346487
0.00036507
0.00038304
0.000400543
0.000418352
0.00042859
0.000439593
0.000442259
0.000439703
0.0013127
0.00131215
0.00131207
0.00131177
0.00131175
0.00131289
0.00131309
0.00131258
0.00131116
0.00130977
0.00130759
0.00130687
0.00130628
0.00130642
0.00130485
0.00130265
0.0013023
0.00130119
0.00130253
0.001304
0.00130618
0.00130938
0.00131084
0.0013115
0.0013127
0.00131419
0.00131756
0.0013221
0.00132449
0.0013249
0.00132366
0.00132398
0.001324
0.0013261
0.00132752
0.00132947
0.00132858
0.0013294
0.00133143
0.00133281
0.0013303
0.00133165
0.00133107
0.00132966
0.0013319
0.00133176
0.00133091
0.00132839
0.00133318
0.00133479
0.00133581
0.00133728
0.00133725
0.00133707
0.0013372
0.00133709
0.00133654
0.00133664
0.00133636
0.00131787
0.00131792
0.00131815
0.00131819
0.00131851
0.00131781
0.00131683
0.00131537
0.00131385
0.00131293
0.00131215
0.00131299
0.00131148
0.00130993
0.001308
0.00130626
0.00130793
0.00130754
0.00130875
0.00131025
0.00131178
0.00131511
0.00131699
0.00131788
0.00131896
0.00132037
0.00132432
0.00132834
0.00133056
0.00133091
0.00132998
0.00133012
0.00133024
0.00133204
0.00133371
0.00133515
0.00133554
0.00133554
0.00133764
0.00133985
0.00133834
0.00133889
0.00133856
0.00133823
0.00133812
0.00133894
0.00133872
0.00133737
0.0013377
0.00134136
0.00134189
0.00134276
0.00134458
0.00134609
0.00134503
0.00134557
0.00134552
0.0013457
0.00134597
0.00132385
0.00132366
0.00132355
0.0013232
0.00132242
0.00132128
0.00132036
0.00131954
0.00131909
0.00131919
0.00131921
0.00131811
0.00131611
0.00131489
0.00131375
0.00131426
0.00131464
0.00131475
0.0013157
0.00131736
0.00131983
0.00132258
0.00132434
0.00132511
0.001326
0.00132745
0.00133147
0.00133528
0.00133804
0.00133829
0.00133784
0.00133786
0.00133788
0.00133932
0.00134149
0.00134191
0.00134198
0.00134263
0.00134382
0.00134701
0.00134673
0.00134646
0.00134706
0.00134675
0.00134722
0.00134675
0.00134797
0.00134818
0.00134875
0.00134871
0.00135194
0.00134942
0.00135138
0.00135416
0.00135501
0.00135665
0.00135758
0.00135621
0.00135601
0.00133003
0.00132998
0.00132974
0.00132844
0.00132838
0.00132771
0.00132763
0.00132755
0.00132751
0.00132706
0.00132603
0.00132416
0.00132296
0.00132223
0.00132208
0.001323
0.00132314
0.00132335
0.00132473
0.00132694
0.00132909
0.00133191
0.00133303
0.00133356
0.00133448
0.00133614
0.00134071
0.00134403
0.0013463
0.00134692
0.00134646
0.00134672
0.00134703
0.00134773
0.00134994
0.00135147
0.00135177
0.00135237
0.001353
0.00135623
0.00135647
0.00135665
0.00135617
0.00135637
0.00135576
0.00135783
0.00135666
0.00135782
0.00135748
0.00135907
0.00135933
0.00136217
0.00136363
0.00136215
0.0013629
0.00136629
0.00136705
0.0013667
0.00136656
0.00134245
0.00134157
0.0013403
0.00133894
0.00133655
0.00133718
0.00133702
0.00133681
0.0013361
0.00133496
0.00133362
0.00133235
0.00133195
0.00133179
0.00133238
0.00133278
0.00133309
0.00133366
0.00133519
0.00133745
0.00133954
0.00134193
0.00134289
0.00134333
0.00134428
0.00134617
0.00135077
0.00135383
0.00135608
0.00135682
0.00135655
0.00135666
0.001357
0.00135747
0.00135938
0.0013619
0.00136324
0.00136391
0.00136433
0.00136699
0.00136815
0.00136781
0.00136919
0.00136794
0.00136842
0.00136829
0.00136769
0.00136994
0.00136781
0.00137026
0.00137073
0.00137102
0.00137409
0.00137336
0.00137548
0.0013741
0.00137827
0.00137866
0.00137748
0.00135274
0.00135071
0.00135027
0.00134833
0.00134835
0.00134842
0.00134802
0.00134724
0.00134637
0.00134558
0.00134429
0.00134406
0.00134409
0.00134443
0.00134498
0.00134545
0.00134581
0.00134622
0.00134791
0.00135008
0.00135204
0.00135411
0.00135468
0.0013551
0.00135606
0.00135819
0.00136271
0.00136553
0.00136777
0.00136866
0.00136858
0.00136866
0.00136913
0.00136959
0.00137138
0.00137388
0.0013757
0.00137757
0.00137813
0.00137955
0.00138092
0.00138264
0.00138175
0.00138092
0.00138025
0.00138102
0.00138208
0.00138362
0.00138437
0.0013842
0.00138372
0.00138666
0.00138669
0.00138669
0.00138596
0.00138716
0.00138651
0.00138902
0.00139304
0.00136569
0.00136497
0.00136144
0.00136254
0.00136203
0.00136155
0.00136082
0.00136081
0.00136062
0.00135813
0.00135837
0.00135833
0.00135891
0.00135961
0.00135983
0.00135954
0.00135896
0.00136093
0.00136255
0.00136462
0.00136646
0.001368
0.00136848
0.00136886
0.00136988
0.00137236
0.00137674
0.0013794
0.00138166
0.00138268
0.00138272
0.00138266
0.00138301
0.00138332
0.00138496
0.00138734
0.00138949
0.00139139
0.00139216
0.00139378
0.00139541
0.00139807
0.00139928
0.00139982
0.00140039
0.00139798
0.0013994
0.00139935
0.00139852
0.0013983
0.00139995
0.00139958
0.00139948
0.0014024
0.00140339
0.00140725
0.00140624
0.00140741
0.00140805
0.00138189
0.00137959
0.00138082
0.00137981
0.00137705
0.00137817
0.00137961
0.0013803
0.00137856
0.00137585
0.00137637
0.001377
0.00137791
0.00137802
0.00137755
0.00137707
0.00137783
0.00137912
0.0013805
0.00138244
0.00138402
0.00138513
0.00138525
0.00138567
0.00138672
0.00138949
0.00139365
0.00139617
0.00139842
0.00139957
0.0013998
0.00139988
0.00140031
0.00140074
0.00140238
0.00140473
0.00140717
0.00140941
0.00141054
0.00141185
0.00141363
0.00141571
0.00141744
0.00141878
0.00142215
0.00142355
0.00142589
0.001428
0.00142932
0.00142896
0.00143375
0.00142944
0.00142854
0.00142752
0.00143128
0.0014332
0.00143382
0.00143407
0.00143623
0.00140956
0.00140606
0.00140703
0.00140465
0.00140572
0.00140497
0.00140317
0.00140171
0.0013989
0.00139672
0.00139851
0.00139958
0.00140007
0.00139908
0.00139719
0.00139772
0.00139915
0.00139914
0.00140089
0.00140298
0.00140436
0.00140482
0.00140486
0.00140541
0.00140647
0.00140969
0.0014136
0.00141605
0.00141835
0.00141959
0.00141988
0.00141987
0.00142001
0.00142026
0.0014218
0.00142407
0.00142669
0.00142941
0.00143141
0.00143296
0.00143471
0.00143691
0.00143906
0.00144077
0.00144293
0.0014451
0.00144715
0.00144955
0.00145145
0.00145276
0.00145519
0.00145545
0.00146122
0.0014572
0.00146431
0.00146057
0.00145807
0.0014591
0.00145935
0.00142833
0.00142715
0.00142584
0.00142681
0.00142605
0.00142702
0.00142473
0.00142861
0.00142955
0.00142722
0.00142809
0.00142713
0.00142389
0.0014245
0.00142339
0.00142379
0.0014238
0.00142516
0.00142808
0.00142952
0.00142971
0.00142946
0.00142934
0.00142988
0.00143095
0.00143441
0.00143799
0.00144039
0.00144262
0.00144402
0.00144451
0.00144489
0.00144525
0.00144568
0.00144729
0.00144961
0.00145225
0.00145506
0.00145758
0.00145965
0.00146148
0.00146351
0.00146602
0.00146826
0.00147042
0.00147268
0.00147479
0.00147718
0.00147932
0.00148124
0.00148318
0.00148475
0.00148714
0.00148762
0.00149433
0.00149521
0.00150162
0.00150693
0.00151022
0.00146218
0.00146319
0.00145665
0.00145739
0.00145511
0.00145954
0.00146343
0.001465
0.00145714
0.00145646
0.00145481
0.00145291
0.00145242
0.00145164
0.00145308
0.00145513
0.00145362
0.00145624
0.00145772
0.00145828
0.00145815
0.00145801
0.00145793
0.00145837
0.00145989
0.00146352
0.0014668
0.00146926
0.00147149
0.00147301
0.0014735
0.00147376
0.00147376
0.00147391
0.00147538
0.00147784
0.00148084
0.00148406
0.00148719
0.00149005
0.00149257
0.00149488
0.0014975
0.00150031
0.00150299
0.00150578
0.00150836
0.00151111
0.00151371
0.00151622
0.00151855
0.0015207
0.00152294
0.00152479
0.00152724
0.00152926
0.00153179
0.00153436
0.0015367
0.00149744
0.00150323
0.00149711
0.00150057
0.00149772
0.00150119
0.00150142
0.00149268
0.0014946
0.00149001
0.00149012
0.00149755
0.0014965
0.00149121
0.00149548
0.00149389