/*--------------------------------*- C++ -*----------------------------------*\
| =========                 |                                                 |
| \\      /  F ield         | OpenFOAM: The Open Source CFD Toolbox           |
|  \\    /   O peration     | Version:  2312                                  |
|   \\  /    A nd           | Website:  www.openfoam.com                      |
|    \\/     M anipulation  |                                                 |
\*---------------------------------------------------------------------------*/
FoamFile
{
    version     2.0;
    format      ascii;
    arch        "LSB;label=32;scalar=64";
    class       volScalarField;
    location    "1600";
    object      p;
}
// * * * * * * * * * * * * * * * * * * * * * * * * * * * * * * * * * * * * * //

dimensions      [0 2 -2 0 0 0 0];

internalField   nonuniform List<scalar> 
76025
(
0.0548451
0.0505833
0.0462031
0.0418889
0.0375545
0.033206
0.0286352
0.0242784
0.0198254
0.0154542
0.0109892
0.00648005
0.00194587
-0.00256438
-0.00707546
-0.0115942
-0.0159977
-0.0204465
-0.0248612
-0.0291135
-0.0333176
-0.0376128
-0.0418408
-0.0459692
-0.0500591
-0.0540542
-0.0580851
-0.0621097
-0.0658448
-0.0696932
-0.0731295
-0.0767104
-0.0804629
-0.084096
-0.0875519
-0.0907912
-0.0939063
-0.097166
-0.100375
-0.103507
-0.106344
-0.109089
-0.112061
-0.115075
-0.117845
-0.120524
-0.123291
-0.126362
-0.129178
-0.132048
-0.135023
-0.138003
-0.14126
-0.14485
-0.148588
-0.152417
-0.15676
-0.161482
-0.1666
-0.172014
-0.177761
-0.184683
-0.1926
-0.201021
-0.210406
-0.22143
-0.23339
-0.247354
-0.265103
0.0547248
0.050189
0.0456248
0.0410868
0.0365291
0.0319137
0.0273024
0.0226946
0.0180408
0.0133662
0.00865242
0.00395049
-0.000733514
-0.00540548
-0.0100515
-0.0146538
-0.0192658
-0.0237992
-0.0283274
-0.0327392
-0.0371771
-0.0415407
-0.0458405
-0.0500771
-0.0542738
-0.0584116
-0.06248
-0.066392
-0.0702054
-0.0739596
-0.0776181
-0.0813389
-0.0849587
-0.088395
-0.0917821
-0.0950741
-0.0983454
-0.101499
-0.104535
-0.107518
-0.110346
-0.113135
-0.11587
-0.118545
-0.121189
-0.123827
-0.126498
-0.129216
-0.131931
-0.134692
-0.137533
-0.140457
-0.143561
-0.146882
-0.150401
-0.154203
-0.15839
-0.162937
-0.167858
-0.173211
-0.179175
-0.186081
-0.193826
-0.202424
-0.21214
-0.223366
-0.235986
-0.250515
-0.267561
0.0548717
0.0501099
0.0453121
0.0405323
0.035741
0.0309406
0.0261172
0.0212617
0.0163829
0.0114841
0.0065855
0.00170492
-0.00315549
-0.0079918
-0.0127963
-0.0175857
-0.0223405
-0.0270514
-0.0317093
-0.03632
-0.0408729
-0.04535
-0.0497605
-0.054105
-0.0583763
-0.0625631
-0.0666385
-0.0706123
-0.0745048
-0.078312
-0.0820484
-0.0857021
-0.0892349
-0.0926696
-0.0960402
-0.0993252
-0.102502
-0.105545
-0.108482
-0.11133
-0.114071
-0.116725
-0.119312
-0.121869
-0.124403
-0.126908
-0.129399
-0.131912
-0.134456
-0.137035
-0.139681
-0.142432
-0.145338
-0.148451
-0.151801
-0.155429
-0.159388
-0.163739
-0.168528
-0.173839
-0.179797
-0.186575
-0.194274
-0.203
-0.21294
-0.224371
-0.237457
-0.252622
-0.270025
0.0549408
0.0499319
0.0448807
0.0398559
0.0348335
0.0297925
0.0247218
0.0196257
0.0145187
0.00941058
0.00431033
-0.000776137
-0.00584425
-0.0108893
-0.0159047
-0.020886
-0.0258215
-0.0307045
-0.0355273
-0.040286
-0.0449723
-0.0495826
-0.0541132
-0.0585583
-0.0629104
-0.0671642
-0.0713163
-0.0753677
-0.0793162
-0.0831591
-0.0868955
-0.0905235
-0.0940485
-0.0974768
-0.100808
-0.104026
-0.107111
-0.11006
-0.112885
-0.115596
-0.118201
-0.120712
-0.123152
-0.125539
-0.127878
-0.13018
-0.132466
-0.134762
-0.137086
-0.13945
-0.141885
-0.144428
-0.147117
-0.149999
-0.153115
-0.156509
-0.16024
-0.164375
-0.168978
-0.174136
-0.179971
-0.186633
-0.194261
-0.203002
-0.213055
-0.224694
-0.23816
-0.253822
-0.271739
0.0547023
0.0494225
0.0441012
0.0388125
0.0335319
0.0282334
0.0229092
0.0175658
0.0122159
0.00687056
0.00153707
-0.00377869
-0.00907041
-0.0143311
-0.0195526
-0.0247262
-0.0298444
-0.0348995
-0.0398847
-0.0447929
-0.0496184
-0.0543554
-0.0589974
-0.0635387
-0.0679747
-0.0723008
-0.0765128
-0.0806057
-0.084576
-0.0884232
-0.092148
-0.0957533
-0.0992415
-0.102611
-0.105861
-0.108977
-0.111947
-0.11477
-0.117452
-0.120006
-0.122448
-0.12479
-0.12705
-0.12924
-0.131374
-0.133466
-0.135535
-0.137601
-0.139685
-0.141808
-0.143997
-0.146287
-0.148716
-0.151329
-0.154172
-0.157295
-0.160758
-0.164628
-0.168983
-0.173919
-0.179556
-0.186037
-0.193524
-0.2022
-0.212289
-0.224078
-0.237848
-0.253971
-0.272638
0.0541886
0.0486196
0.0430117
0.0374428
0.0318871
0.0263179
0.0207269
0.0151204
0.00951148
0.00391284
-0.0016667
-0.00722047
-0.0127415
-0.0182217
-0.0236523
-0.0290247
-0.0343311
-0.0395636
-0.0447143
-0.0497759
-0.0547413
-0.0596035
-0.0643558
-0.0689925
-0.0735081
-0.0778973
-0.0821548
-0.0862766
-0.0902604
-0.0941056
-0.0978126
-0.101382
-0.104814
-0.10811
-0.111269
-0.114278
-0.117124
-0.119805
-0.122331
-0.124717
-0.126977
-0.129126
-0.13118
-0.133151
-0.135054
-0.136903
-0.138716
-0.140516
-0.142323
-0.144164
-0.146065
-0.148061
-0.15019
-0.152494
-0.155022
-0.157825
-0.160965
-0.164513
-0.168554
-0.173188
-0.178539
-0.184759
-0.192023
-0.200544
-0.21057
-0.222412
-0.236388
-0.252884
-0.272196
0.0533936
0.0475162
0.0416037
0.0357373
0.0298896
0.024033
0.0181585
0.0122728
0.00639048
0.000525358
-0.00531291
-0.0111171
-0.0168798
-0.022592
-0.0282446
-0.0338281
-0.0393338
-0.044753
-0.050077
-0.055298
-0.0604077
-0.0653986
-0.0702637
-0.0749961
-0.0795896
-0.0840385
-0.0883382
-0.0924848
-0.0964757
-0.10031
-0.103986
-0.107504
-0.110867
-0.114074
-0.117125
-0.120004
-0.122701
-0.125214
-0.127554
-0.129738
-0.131782
-0.133704
-0.135517
-0.137235
-0.138872
-0.140443
-0.141967
-0.143467
-0.144967
-0.146491
-0.148068
-0.149731
-0.151517
-0.153467
-0.15563
-0.158059
-0.160817
-0.163977
-0.167628
-0.171876
-0.176851
-0.182714
-0.189655
-0.197911
-0.207751
-0.219513
-0.233552
-0.250273
-0.270126
0.0522536
0.0460482
0.0398111
0.0336275
0.0274681
0.0213042
0.0151265
0.00894269
0.00276881
-0.00338014
-0.00949392
-0.0155646
-0.0215839
-0.0275421
-0.0334293
-0.0392353
-0.04495
-0.050564
-0.0560682
-0.0614535
-0.0667109
-0.0718321
-0.0768093
-0.0816352
-0.0863029
-0.0908065
-0.095141
-0.0993025
-0.103288
-0.107094
-0.110722
-0.11417
-0.117442
-0.120538
-0.123456
-0.126178
-0.128695
-0.13101
-0.133135
-0.135088
-0.136887
-0.138551
-0.140092
-0.141526
-0.142864
-0.144125
-0.145327
-0.146493
-0.147648
-0.148816
-0.150027
-0.151312
-0.152708
-0.154255
-0.155999
-0.157994
-0.160304
-0.163003
-0.166181
-0.169951
-0.174448
-0.179843
-0.186338
-0.194192
-0.203692
-0.215199
-0.229089
-0.245796
-0.266041
0.0507044
0.0441494
0.0375661
0.0310437
0.0245515
0.0180595
0.0115585
0.0050569
-0.00142779
-0.00787946
-0.0142867
-0.0206408
-0.0269324
-0.0331511
-0.0392857
-0.045325
-0.0512581
-0.0570748
-0.0627649
-0.0683185
-0.073726
-0.0789783
-0.0840664
-0.0889821
-0.0937186
-0.0982694
-0.102629
-0.106793
-0.110757
-0.11452
-0.118081
-0.12144
-0.124598
-0.127559
-0.130315
-0.132852
-0.13516
-0.137246
-0.139125
-0.140815
-0.142337
-0.143708
-0.144942
-0.146053
-0.147057
-0.147968
-0.148809
-0.149602
-0.150372
-0.151143
-0.151944
-0.152805
-0.153762
-0.154852
-0.15612
-0.157618
-0.159409
-0.161567
-0.164184
-0.167373
-0.171277
-0.176075
-0.181983
-0.189271
-0.198243
-0.209275
-0.222755
-0.239091
-0.258853
0.0486866
0.0417559
0.0348007
0.0279151
0.0210665
0.0142239
0.00737792
0.000537935
-0.00627749
-0.0130511
-0.0197703
-0.0264251
-0.0330054
-0.0394993
-0.0458945
-0.0521791
-0.0583411
-0.0643694
-0.0702527
-0.0759797
-0.0815403
-0.0869245
-0.0921223
-0.0971248
-0.101924
-0.106514
-0.110888
-0.11504
-0.118968
-0.122669
-0.126143
-0.129389
-0.13241
-0.135208
-0.137774
-0.140094
-0.142161
-0.143985
-0.145582
-0.146972
-0.148176
-0.149213
-0.150099
-0.150847
-0.151473
-0.151994
-0.152432
-0.15281
-0.153151
-0.153481
-0.153826
-0.154215
-0.154682
-0.15526
-0.155993
-0.156928
-0.158125
-0.159658
-0.161616
-0.164116
-0.167304
-0.17136
-0.176509
-0.183026
-0.191234
-0.201517
-0.214314
-0.230019
-0.249341
0.0461275
0.0387951
0.031442
0.0241671
0.0169363
0.00971751
0.00250153
-0.00470133
-0.011871
-0.0189889
-0.0260409
-0.0330163
-0.0399033
-0.0466892
-0.0533607
-0.0599043
-0.0663072
-0.0725569
-0.0786413
-0.0845481
-0.0902658
-0.095783
-0.101089
-0.106175
-0.111031
-0.115649
-0.120024
-0.12415
-0.128024
-0.131642
-0.135004
-0.138111
-0.140965
-0.143567
-0.145907
-0.14797
-0.149757
-0.151278
-0.152551
-0.153599
-0.154444
-0.155105
-0.155597
-0.155938
-0.156142
-0.156229
-0.15622
-0.156138
-0.156006
-0.15585
-0.155694
-0.155564
-0.155489
-0.1555
-0.155636
-0.15594
-0.156467
-0.157287
-0.158487
-0.160179
-0.162506
-0.165645
-0.169821
-0.175311
-0.182457
-0.191654
-0.203435
-0.218175
-0.237221
0.0429325
0.0351705
0.027392
0.0197008
0.0120614
0.00444072
-0.00317058
-0.0107612
-0.0183097
-0.0257953
-0.0332029
-0.0405201
-0.0477343
-0.0548315
-0.0617969
-0.0686153
-0.0752726
-0.0817552
-0.088049
-0.0941412
-0.100019
-0.10567
-0.111082
-0.116246
-0.12115
-0.125787
-0.130149
-0.134231
-0.13803
-0.141542
-0.144766
-0.147703
-0.150356
-0.152726
-0.1548
-0.156567
-0.158029
-0.159202
-0.160106
-0.160765
-0.161203
-0.161438
-0.161488
-0.161371
-0.161103
-0.160705
-0.1602
-0.15961
-0.15896
-0.158271
-0.157565
-0.156866
-0.156198
-0.155587
-0.155067
-0.154675
-0.154458
-0.154478
-0.154812
-0.155561
-0.156856
-0.158867
-0.161815
-0.165974
-0.171708
-0.179434
-0.189782
-0.203108
-0.221752
0.0389969
0.0307727
0.022537
0.0143989
0.00632104
-0.00173084
-0.00976566
-0.0177712
-0.0257246
-0.0336033
-0.0413905
-0.0490724
-0.0566351
-0.0640636
-0.071341
-0.0784508
-0.0853773
-0.0921049
-0.0986183
-0.104903
-0.110945
-0.11673
-0.122246
-0.127481
-0.132424
-0.137066
-0.141399
-0.145418
-0.149117
-0.152493
-0.155547
-0.15828
-0.160695
-0.162792
-0.164556
-0.16598
-0.16707
-0.167844
-0.168326
-0.168541
-0.168515
-0.168267
-0.167817
-0.167185
-0.16639
-0.165455
-0.164402
-0.163254
-0.162036
-0.160766
-0.159465
-0.15815
-0.156841
-0.155559
-0.154328
-0.153177
-0.152139
-0.151263
-0.150609
-0.150262
-0.150335
-0.150983
-0.152415
-0.154908
-0.15884
-0.164664
-0.173104
-0.184602
-0.201703
0.0342003
0.025479
0.0167518
0.00813294
-0.000417247
-0.00893337
-0.017424
-0.0258755
-0.0342632
-0.0425629
-0.0507562
-0.0588277
-0.0667623
-0.074543
-0.0821515
-0.0895696
-0.0967803
-0.103766
-0.110509
-0.116994
-0.123204
-0.129125
-0.134742
-0.140042
-0.145014
-0.149648
-0.153934
-0.157867
-0.161439
-0.16465
-0.167498
-0.169986
-0.172118
-0.17389
-0.17529
-0.176313
-0.17697
-0.177283
-0.17728
-0.176987
-0.176433
-0.175638
-0.174627
-0.173419
-0.172039
-0.17051
-0.168857
-0.167103
-0.165269
-0.163373
-0.161431
-0.159458
-0.157465
-0.155463
-0.153466
-0.151489
-0.149552
-0.147681
-0.145917
-0.14432
-0.142977
-0.142021
-0.141646
-0.142119
-0.143818
-0.147216
-0.153171
-0.162546
-0.179384
0.0283949
0.0191383
0.00988079
0.000742821
-0.00831666
-0.0173335
-0.0263158
-0.0352487
-0.0441053
-0.052859
-0.0614894
-0.0699805
-0.0783148
-0.0864731
-0.0944353
-0.102182
-0.109694
-0.116951
-0.123935
-0.130627
-0.13701
-0.143066
-0.148781
-0.154139
-0.159128
-0.163736
-0.167953
-0.171772
-0.175187
-0.178195
-0.180796
-0.182992
-0.184788
-0.186176
-0.187148
-0.187704
-0.187861
-0.187643
-0.187082
-0.186209
-0.185054
-0.183641
-0.181995
-0.180143
-0.17811
-0.175924
-0.173611
-0.171195
-0.168692
-0.166121
-0.163491
-0.160813
-0.158089
-0.155322
-0.152511
-0.149655
-0.146753
-0.143808
-0.140828
-0.137843
-0.13491
-0.132131
-0.129673
-0.127778
-0.126802
-0.127229
-0.130026
-0.136215
-0.149415
0.0214151
0.0115813
0.0017514
-0.00794727
-0.0175575
-0.0271157
-0.0366298
-0.0460832
-0.0554464
-0.0646905
-0.0737937
-0.0827373
-0.0915019
-0.100066
-0.108409
-0.116507
-0.12434
-0.131886
-0.139124
-0.146033
-0.152594
-0.158788
-0.164596
-0.170004
-0.174995
-0.179557
-0.183679
-0.187354
-0.190574
-0.193338
-0.195644
-0.197494
-0.198891
-0.199829
-0.200302
-0.200316
-0.199894
-0.199065
-0.197864
-0.196326
-0.194485
-0.192368
-0.190008
-0.187433
-0.184673
-0.181757
-0.178711
-0.175561
-0.172326
-0.16902
-0.165653
-0.162227
-0.158738
-0.155176
-0.151525
-0.147762
-0.143858
-0.139785
-0.13552
-0.131052
-0.126399
-0.121619
-0.116839
-0.112257
-0.108221
-0.105286
-0.104702
-0.107973
-0.119579
0.0130416
0.00258518
-0.00786351
-0.0181689
-0.0283754
-0.03852
-0.0486098
-0.0586264
-0.0685379
-0.0783132
-0.0879276
-0.0973598
-0.106589
-0.115591
-0.124343
-0.132819
-0.140995
-0.148848
-0.156353
-0.163489
-0.170234
-0.176566
-0.182465
-0.187912
-0.19289
-0.197387
-0.201388
-0.204884
-0.207868
-0.210337
-0.212291
-0.213732
-0.214663
-0.215076
-0.214968
-0.214353
-0.213259
-0.211723
-0.209784
-0.207481
-0.204849
-0.201924
-0.198743
-0.195339
-0.191749
-0.188003
-0.184134
-0.180171
-0.176138
-0.172049
-0.167911
-0.163717
-0.159454
-0.155096
-0.150606
-0.145938
-0.141036
-0.135836
-0.130276
-0.124297
-0.117859
-0.110964
-0.103681
-0.0961655
-0.0887931
-0.0822955
-0.0782984
-0.0787099
-0.0876703
0.0030315
-0.00810005
-0.019221
-0.0301867
-0.0410429
-0.0518268
-0.0625445
-0.0731754
-0.0836848
-0.0940386
-0.10421
-0.114174
-0.123909
-0.133388
-0.142583
-0.151468
-0.160015
-0.168197
-0.175989
-0.183366
-0.190302
-0.196773
-0.202758
-0.208235
-0.213185
-0.217592
-0.22144
-0.22472
-0.227422
-0.229542
-0.231081
-0.232041
-0.232424
-0.232221
-0.231434
-0.230086
-0.228208
-0.225841
-0.22303
-0.219819
-0.216252
-0.212372
-0.208227
-0.203858
-0.199311
-0.194628
-0.189851
-0.185012
-0.180136
-0.175234
-0.170307
-0.165341
-0.16031
-0.155175
-0.149881
-0.14436
-0.138525
-0.132273
-0.125489
-0.118054
-0.109858
-0.100832
-0.0909832
-0.0804456
-0.0696979
-0.0597948
-0.0528331
-0.0509714
-0.0578353
-0.008965
-0.0208296
-0.0326827
-0.0443691
-0.0559348
-0.0674168
-0.07882
-0.0901215
-0.101284
-0.112269
-0.123049
-0.133597
-0.143885
-0.153885
-0.163567
-0.1729
-0.181853
-0.190397
-0.198503
-0.206142
-0.213285
-0.219905
-0.225976
-0.231475
-0.23638
-0.24067
-0.24433
-0.247345
-0.249706
-0.251408
-0.252449
-0.252833
-0.252553
-0.251605
-0.250001
-0.247768
-0.244947
-0.241586
-0.237735
-0.233448
-0.22878
-0.223789
-0.218531
-0.213062
-0.207439
-0.201716
-0.195941
-0.190151
-0.184371
-0.178613
-0.172874
-0.167134
-0.161362
-0.155505
-0.149494
-0.143235
-0.136607
-0.129463
-0.121628
-0.11291
-0.103123
-0.0921218
-0.0798623
-0.0665107
-0.0527526
-0.0401302
-0.0311177
-0.0278464
-0.0336561
-0.023358
-0.0360276
-0.0486877
-0.0611715
-0.073523
-0.0857784
-0.0979407
-0.109985
-0.121869
-0.133554
-0.145007
-0.156199
-0.167097
-0.177672
-0.187887
-0.19771
-0.207107
-0.216044
-0.224487
-0.232405
-0.239765
-0.246536
-0.252688
-0.258194
-0.263027
-0.267164
-0.270585
-0.273272
-0.275216
-0.27641
-0.276848
-0.276531
-0.275451
-0.273611
-0.271031
-0.267749
-0.263814
-0.25928
-0.254209
-0.248663
-0.242709
-0.236419
-0.229863
-0.223117
-0.216251
-0.209333
-0.202424
-0.19557
-0.188802
-0.182137
-0.17557
-0.169081
-0.162629
-0.156154
-0.14957
-0.14276
-0.135568
-0.1278
-0.119219
-0.109564
-0.0985755
-0.0860492
-0.0719124
-0.0564337
-0.0406439
-0.0266177
-0.0168453
-0.0132541
-0.0185796
-0.0408752
-0.0544256
-0.0679723
-0.0813312
-0.0945439
-0.107645
-0.120636
-0.133488
-0.146159
-0.158605
-0.17079
-0.182682
-0.194247
-0.205448
-0.216246
-0.226603
-0.236482
-0.245845
-0.254653
-0.26287
-0.270459
-0.277385
-0.283613
-0.28911
-0.293846
-0.297793
-0.300926
-0.303226
-0.304677
-0.305267
-0.304992
-0.303846
-0.301821
-0.298928
-0.295195
-0.290667
-0.2854
-0.279459
-0.272914
-0.265845
-0.258336
-0.250477
-0.242364
-0.234093
-0.225759
-0.217448
-0.209238
-0.20119
-0.193346
-0.185726
-0.178329
-0.171132
-0.16409
-0.157137
-0.150178
-0.143078
-0.135658
-0.127686
-0.118874
-0.108901
-0.0974541
-0.0842832
-0.0693156
-0.0530201
-0.0368467
-0.0230294
-0.0136248
-0.0102372
-0.0146587
-0.0619997
-0.0764873
-0.0909822
-0.105282
-0.119423
-0.133438
-0.147325
-0.161053
-0.174576
-0.187848
-0.20083
-0.213485
-0.225775
-0.237659
-0.249095
-0.260039
-0.270449
-0.280282
-0.289494
-0.298043
-0.305886
-0.312983
-0.319291
-0.324774
-0.329394
-0.333117
-0.335914
-0.337759
-0.338629
-0.33851
-0.337393
-0.335266
-0.332126
-0.327986
-0.322883
-0.316867
-0.310004
-0.302369
-0.29405
-0.285144
-0.275761
-0.266018
-0.25604
-0.245955
-0.235887
-0.225952
-0.216251
-0.206863
-0.197844
-0.18922
-0.180991
-0.173133
-0.165603
-0.158338
-0.151255
-0.144236
-0.137105
-0.129616
-0.121438
-0.112181
-0.101444
-0.0889092
-0.0745958
-0.0592552
-0.0444764
-0.0319904
-0.0231883
-0.0194409
-0.0214626
-0.0877066
-0.10319
-0.118716
-0.134041
-0.149195
-0.164209
-0.179078
-0.193769
-0.208231
-0.222417
-0.236281
-0.249784
-0.262881
-0.275528
-0.287677
-0.29928
-0.310288
-0.320654
-0.330326
-0.339257
-0.347396
-0.354695
-0.361106
-0.366582
-0.37108
-0.374558
-0.376977
-0.378304
-0.378508
-0.377568
-0.375463
-0.372174
-0.367699
-0.362055
-0.355284
-0.347445
-0.338615
-0.328884
-0.318361
-0.307171
-0.295456
-0.283372
-0.271086
-0.258769
-0.246589
-0.234702
-0.223245
-0.212319
-0.20199
-0.192286
-0.183201
-0.174708
-0.166775
-0.15938
-0.152505
-0.146107
-0.140062
-0.134106
-0.127799
-0.120582
-0.111895
-0.101388
-0.0893417
-0.0766085
-0.064124
-0.0528734
-0.0441831
-0.0396561
-0.0398566
-0.116265
-0.132907
-0.149577
-0.166042
-0.182325
-0.198448
-0.214405
-0.230161
-0.245665
-0.260861
-0.275705
-0.290148
-0.304144
-0.317642
-0.33059
-0.342932
-0.354615
-0.365581
-0.375774
-0.385137
-0.393613
-0.401145
-0.407675
-0.413149
-0.417513
-0.420716
-0.422709
-0.423446
-0.422889
-0.421007
-0.417772
-0.413162
-0.407171
-0.399821
-0.391155
-0.381235
-0.370145
-0.357991
-0.344902
-0.331034
-0.316572
-0.301726
-0.286719
-0.271784
-0.257145
-0.243015
-0.229572
-0.216944
-0.205196
-0.194342
-0.184358
-0.175213
-0.166914
-0.159523
-0.153166
-0.147943
-0.14378
-0.140324
-0.136936
-0.13288
-0.127532
-0.120612
-0.112191
-0.102433
-0.0916781
-0.0810778
-0.0725352
-0.0677941
-0.0674452
-0.152865
-0.170747
-0.188763
-0.206553
-0.224136
-0.241544
-0.258771
-0.27578
-0.292512
-0.308909
-0.324919
-0.340491
-0.355573
-0.370109
-0.384041
-0.397307
-0.409843
-0.421586
-0.432473
-0.442435
-0.451406
-0.45932
-0.466109
-0.471708
-0.476052
-0.479078
-0.480721
-0.480921
-0.479616
-0.476751
-0.472271
-0.466137
-0.458342
-0.448904
-0.437867
-0.4253
-0.411294
-0.395969
-0.379483
-0.362029
-0.343842
-0.3252
-0.306416
-0.287823
-0.269749
-0.2525
-0.236332
-0.221429
-0.207869
-0.195619
-0.184569
-0.174599
-0.165686
-0.157997
-0.151898
-0.147733
-0.145509
-0.144812
-0.1449
-0.145013
-0.144284
-0.14175
-0.136707
-0.129022
-0.119545
-0.110127
-0.103039
-0.0996613
-0.100042
-0.184556
-0.204053
-0.223421
-0.242555
-0.261481
-0.280204
-0.298715
-0.316977
-0.334932
-0.35252
-0.369682
-0.386362
-0.402503
-0.418041
-0.432907
-0.447035
-0.460355
-0.472798
-0.48429
-0.494755
-0.504118
-0.512304
-0.519236
-0.524837
-0.529029
-0.531734
-0.532874
-0.532364
-0.530123
-0.526077
-0.520163
-0.512347
-0.502628
-0.491027
-0.477595
-0.462397
-0.44553
-0.427121
-0.407341
-0.386409
-0.364599
-0.342249
-0.319764
-0.297602
-0.276247
-0.256164
-0.23776
-0.221315
-0.206916
-0.194397
-0.183373
-0.173389
-0.164189
-0.156078
-0.149931
-0.146574
-0.146188
-0.148285
-0.151916
-0.155795
-0.158444
-0.158431
-0.155048
-0.148663
-0.140764
-0.13361
-0.129358
-0.128658
-0.131286
-0.241838
-0.262876
-0.284309
-0.305436
-0.326288
-0.346934
-0.367372
-0.38756
-0.407434
-0.426924
-0.445964
-0.46449
-0.482436
-0.499728
-0.516293
-0.532054
-0.546934
-0.56085
-0.573717
-0.585452
-0.595968
-0.605175
-0.612983
-0.619307
-0.62406
-0.627159
-0.62851
-0.627975
-0.625374
-0.62052
-0.613262
-0.603514
-0.59125
-0.57649
-0.55929
-0.539732
-0.517932
-0.49405
-0.468298
-0.440963
-0.412406
-0.383072
-0.353501
-0.324338
-0.29632
-0.270235
-0.246857
-0.226825
-0.210479
-0.197678
-0.187663
-0.179183
-0.1711
-0.163485
-0.157707
-0.155057
-0.155642
-0.158555
-0.162656
-0.166537
-0.168631
-0.167847
-0.164056
-0.158006
-0.151402
-0.146567
-0.145164
-0.147308
-0.152783
-0.25911
-0.281625
-0.303614
-0.325608
-0.347545
-0.36928
-0.390782
-0.412022
-0.432932
-0.45343
-0.473438
-0.492892
-0.511722
-0.529858
-0.54722
-0.563725
-0.579285
-0.593811
-0.607209
-0.619381
-0.630231
-0.639653
-0.647543
-0.653801
-0.658349
-0.661146
-0.662233
-0.661573
-0.658938
-0.654045
-0.646668
-0.636647
-0.623861
-0.608222
-0.589658
-0.568119
-0.543591
-0.516136
-0.485895
-0.453121
-0.418229
-0.381826
-0.344727
-0.308006
-0.272978
-0.241154
-0.214094
-0.193173
-0.17921
-0.172012
-0.170023
-0.170423
-0.170081
-0.167934
-0.165467
-0.164396
-0.165127
-0.167025
-0.16929
-0.171037
-0.170958
-0.16807
-0.162489
-0.155395
-0.148872
-0.14516
-0.145699
-0.150442
-0.158966
-0.360489
-0.38651
-0.412782
-0.438433
-0.463562
-0.488445
-0.513177
-0.537693
-0.56188
-0.585627
-0.608846
-0.631461
-0.653397
-0.674577
-0.69491
-0.714301
-0.732649
-0.749846
-0.765781
-0.780335
-0.793382
-0.804784
-0.814392
-0.822036
-0.827514
-0.830573
-0.830877
-0.828188
-0.822529
-0.814011
-0.802702
-0.788555
-0.771415
-0.751053
-0.727203
-0.699623
-0.668151
-0.632726
-0.593448
-0.550628
-0.504842
-0.456988
-0.408324
-0.360422
-0.315099
-0.274293
-0.239855
-0.213226
-0.195057
-0.184877
-0.180995
-0.180715
-0.181207
-0.180803
-0.179303
-0.177389
-0.175607
-0.174104
-0.172606
-0.170439
-0.166617
-0.160366
-0.151865
-0.142833
-0.135931
-0.133244
-0.134772
-0.139481
-0.147356
0.0130405
0.0180384
0.0232726
0.0287034
0.0344186
0.0404953
0.0469338
0.0535917
0.0604135
0.0675625
0.0750626
0.0828088
0.0906441
0.0990385
0.107108
0.115392
0.123342
0.131629
0.139575
0.147296
0.15529
0.162305
0.168848
0.174801
0.180165
0.184805
0.188358
0.191116
0.19318
0.194054
0.193822
0.19285
0.191153
0.188684
0.185104
0.180932
0.176222
0.170853
0.165075
0.159106
0.152567
0.145905
0.139535
0.133219
0.126395
0.120028
0.113542
0.107478
0.101559
0.0959187
0.090567
0.0854929
0.0808031
0.0763585
0.072238
0.0681875
0.0645974
0.0612557
0.0582571
0.0119127
0.0171132
0.022592
0.0283437
0.0343937
0.0407571
0.0474464
0.0544319
0.0616982
0.0692651
0.0771057
0.0851922
0.0934874
0.10202
0.110661
0.119289
0.127954
0.136554
0.145023
0.15314
0.16117
0.168665
0.175567
0.181863
0.187418
0.192173
0.196024
0.198827
0.200869
0.201773
0.201515
0.200489
0.198646
0.195878
0.192208
0.187807
0.182796
0.177188
0.171101
0.164661
0.157869
0.150978
0.144113
0.137085
0.130136
0.123299
0.116651
0.110265
0.104062
0.0981112
0.092471
0.0871371
0.0820705
0.0773518
0.0728959
0.0688021
0.0650601
0.0616104
0.0584411
0.0103794
0.0158533
0.0216113
0.0276847
0.0340746
0.0407899
0.0478251
0.0551748
0.0628407
0.0708206
0.0790825
0.0875897
0.0963216
0.10525
0.114312
0.123474
0.132662
0.141753
0.150645
0.15925
0.167568
0.175452
0.182738
0.189341
0.195166
0.200126
0.204155
0.20713
0.209162
0.210067
0.209853
0.208742
0.206658
0.203646
0.199754
0.195104
0.189769
0.183861
0.177446
0.170672
0.163596
0.156298
0.148915
0.141526
0.134213
0.12705
0.120054
0.113271
0.106735
0.100486
0.0945556
0.0889359
0.0836292
0.0786406
0.0740121
0.0697366
0.0657884
0.0621448
0.0587972
0.00857999
0.0143422
0.0204082
0.026807
0.0335403
0.0406153
0.0480297
0.0557802
0.0638644
0.072274
0.0809865
0.089971
0.0991975
0.108617
0.118165
0.127812
0.137467
0.147041
0.156416
0.165531
0.174293
0.182566
0.190229
0.197167
0.203293
0.208508
0.212729
0.215861
0.217934
0.218851
0.218626
0.217411
0.215138
0.211921
0.207779
0.202839
0.197176
0.190909
0.184121
0.176954
0.169487
0.161791
0.154001
0.146233
0.138517
0.130943
0.123548
0.116381
0.10949
0.10291
0.0966614
0.0907528
0.0851938
0.0799835
0.0751287
0.0706194
0.0664455
0.0625912
0.0590658
0.00662408
0.012695
0.0190857
0.0258252
0.0329161
0.0403662
0.048177
0.0563467
0.0648693
0.0737324
0.0829153
0.0923899
0.10212
0.112053
0.122126
0.132283
0.142444
0.152523
0.162413
0.172032
0.181264
0.189967
0.19803
0.205331
0.211774
0.217257
0.221692
0.224974
0.227114
0.228043
0.227777
0.226456
0.224024
0.220593
0.216192
0.210939
0.204928
0.198275
0.191082
0.183478
0.175568
0.167448
0.159231
0.151017
0.142862
0.134847
0.127033
0.119471
0.112204
0.105264
0.0986716
0.0924413
0.0865803
0.0810902
0.0759687
0.071211
0.0668123
0.0627539
0.0590456
0.00444698
0.0108483
0.0175867
0.0246925
0.0321681
0.0400222
0.0482571
0.0568711
0.0658571
0.0752007
0.0848797
0.0948648
0.105117
0.115587
0.126212
0.136924
0.147637
0.15826
0.168688
0.178821
0.18854
0.197705
0.206195
0.213881
0.220657
0.226416
0.23107
0.234508
0.236723
0.237664
0.237353
0.235919
0.233319
0.229652
0.224971
0.219388
0.213005
0.205941
0.198313
0.190248
0.181862
0.173266
0.164567
0.155864
0.147236
0.138761
0.130503
0.122516
0.114842
0.107513
0.100552
0.0939729
0.0877845
0.0819901
0.0765889
0.0715753
0.0669429
0.0626708
0.0587681
0.00197768
0.00873061
0.0158403
0.023338
0.0312263
0.0395141
0.0482037
0.057293
0.0667739
0.0766311
0.0868416
0.097374
0.108187
0.11923
0.130439
0.141739
0.153042
0.164247
0.175246
0.185927
0.196164
0.205819
0.21476
0.222853
0.22998
0.236028
0.240909
0.244507
0.246802
0.247753
0.247393
0.245833
0.243045
0.239122
0.234137
0.228197
0.221412
0.213908
0.20581
0.197251
0.188354
0.179238
0.170016
0.160793
0.151658
0.14269
0.133955
0.125509
0.117396
0.109649
0.102294
0.0953462
0.0888142
0.0827015
0.0770066
0.0717219
0.0668398
0.062338
0.0582264
-0.000820092
0.00630706
0.0138112
0.0217251
0.0300519
0.0388008
0.0479742
0.0575695
0.0675781
0.077984
0.0887631
0.0998822
0.111297
0.122954
0.134785
0.14671
0.158638
0.170464
0.182072
0.193341
0.204134
0.214311
0.223731
0.232254
0.239754
0.24611
0.251229
0.254995
0.257371
0.25833
0.257911
0.256211
0.253217
0.249019
0.243703
0.237376
0.230157
0.222178
0.213573
0.20448
0.195034
0.185361
0.17558
0.165802
0.156122
0.146622
0.137373
0.128434
0.119849
0.111656
0.103879
0.0965362
0.0896362
0.0831817
0.0771696
0.0715916
0.0664397
0.061691
0.057356
-0.0039889
0.00353784
0.0114631
0.0198206
0.0286141
0.0378532
0.0475404
0.0576733
0.0682431
0.079233
0.0906177
0.102362
0.114419
0.12673
0.139224
0.151817
0.164412
0.176899
0.189157
0.201051
0.21244
0.223174
0.233103
0.242084
0.249981
0.256667
0.262038
0.265978
0.26844
0.269404
0.268917
0.267064
0.263847
0.259353
0.253677
0.246932
0.239245
0.230754
0.221603
0.211938
0.201902
0.191631
0.18125
0.170875
0.160607
0.150534
0.140732
0.13126
0.122169
0.113496
0.105266
0.0974976
0.0901999
0.083375
0.0770195
0.0711249
0.0656827
0.0606689
0.0560943
-0.00758648
0.000366997
0.00874161
0.0175725
0.0268638
0.0366257
0.0468609
0.0575672
0.0687355
0.0803484
0.0923788
0.104789
0.117529
0.130538
0.14374
0.157046
0.170354
0.183546
0.196494
0.209055
0.221078
0.232406
0.24288
0.25235
0.26067
0.267705
0.273345
0.277469
0.280021
0.280989
0.280425
0.278407
0.274947
0.270135
0.26407
0.256874
0.248681
0.239638
0.2299
0.21962
0.20895
0.198033
0.187004
0.175985
0.165084
0.154393
0.143993
0.133948
0.124311
0.115119
0.106401
0.0981745
0.0904488
0.0832258
0.076502
0.070268
0.0645146
0.0592168
0.0543856
-0.0116857
-0.00327701
0.00557734
0.0149136
0.0247368
0.0350581
0.0458805
0.0572009
0.0690096
0.0812884
0.0940086
0.10713
0.1206
0.134354
0.148311
0.162379
0.176447
0.190392
0.204076
0.217348
0.230048
0.242009
0.253066
0.263057
0.271827
0.279236
0.285161
0.28948
0.292126
0.293097
0.292447
0.29025
0.286528
0.281371
0.274887
0.267203
0.258465
0.248829
0.238456
0.227513
0.216157
0.204544
0.192816
0.181102
0.169516
0.158159
0.147115
0.136451
0.126223
0.116472
0.107227
0.0985061
0.0903198
0.0826696
0.075551
0.0689539
0.0628677
0.0572656
0.0521583
-0.0163683
-0.00747243
0.00189539
0.0117731
0.0221661
0.033086
0.0445365
0.0565143
0.0690084
0.0819992
0.0954562
0.109337
0.123588
0.138138
0.152904
0.167786
0.182668
0.197417
0.211888
0.225919
0.239342
0.251982
0.263661
0.274207
0.283459
0.291265
0.297494
0.302019
0.304765
0.305737
0.304993
0.302601
0.298595
0.293065
0.286127
0.277917
0.26859
0.258312
0.247256
0.235595
0.2235
0.211135
0.198651
0.186186
0.173862
0.161785
0.150045
0.138713
0.127848
0.117493
0.107679
0.0984246
0.089741
0.0816292
0.0740843
0.0670952
0.0606502
0.0547209
0.049318
-0.0217294
-0.01231
-0.0023905
0.00806815
0.0190722
0.0306338
0.0427561
0.0554361
0.0686623
0.0824138
0.0966584
0.111353
0.126438
0.141842
0.157474
0.173228
0.18898
0.204591
0.219903
0.234748
0.248945
0.26231
0.274655
0.285797
0.295563
0.303793
0.310347
0.31509
0.317942
0.318911
0.318062
0.31546
0.311144
0.305211
0.297782
0.289005
0.279042
0.26807
0.256274
0.243838
0.230946
0.217768
0.204467
0.191191
0.178069
0.165214
0.152721
0.140667
0.129114
0.118107
0.107678
0.097848
0.0886273
0.0800171
0.0720118
0.0645993
0.0577671
0.0514852
0.0457641
-0.0278731
-0.0178913
-0.00737987
0.00370162
0.0153598
0.0276072
0.0404473
0.0538771
0.0678853
0.0824508
0.0975405
0.113107
0.129088
0.145406
0.161965
0.178653
0.195338
0.211871
0.228086
0.243802
0.25883
0.272973
0.286032
0.297811
0.308128
0.316812
0.323713
0.328688
0.331651
0.332615
0.33165
0.328818
0.324167
0.317797
0.309838
0.300446
0.289795
0.278074
0.265479
0.252206
0.23845
0.224395
0.210213
0.19606
0.182075
0.168378
0.15507
0.142234
0.129935
0.118221
0.107127
0.0966741
0.0868726
0.0777238
0.0692215
0.0613526
0.0541032
0.047442
0.0413785
-0.0349369
-0.0243522
-0.0132067
-0.00145886
0.0108992
0.0238809
0.0374908
0.0517264
0.0665761
0.0820173
0.0980138
0.114515
0.131456
0.148752
0.166305
0.183994
0.20168
0.219203
0.236385
0.253037
0.268957
0.283935
0.29776
0.310224
0.321131
0.330303
0.337575
0.342797
0.345877
0.346834
0.34574
0.342658
0.337643
0.3308
0.322268
0.312212
0.300818
0.288287
0.274828
0.26065
0.24596
0.230955
0.215818
0.200717
0.185798
0.171189
0.156999
0.143316
0.130208
0.117729
0.105913
0.0947843
0.0843534
0.0746213
0.0655809
0.0572183
0.0495182
0.0424479
0.0360156
-0.0430907
-0.0318588
-0.020032
-0.0075678
0.00554431
0.0193185
0.0337594
0.0488629
0.0646155
0.0809942
0.097961
0.115463
0.133432
0.151781
0.170402
0.189169
0.207931
0.226516
0.244737
0.262396
0.279274
0.295149
0.309798
0.322997
0.334539
0.344234
0.351904
0.357389
0.360594
0.36154
0.360304
0.356951
0.351542
0.344186
0.335033
0.324258
0.31206
0.298653
0.284259
0.269102
0.253402
0.237368
0.221196
0.205066
0.189134
0.173537
0.158391
0.143789
0.129805
0.116495
0.103897
0.0920362
0.0809234
0.0705595
0.060937
0.0520408
0.043854
0.0363423
0.0295127
-0.05253
-0.0405998
-0.0280369
-0.014799
-0.000874449
0.0137519
0.0290849
0.0451197
0.0618417