/*--------------------------------*- C++ -*----------------------------------*\
| =========                 |                                                 |
| \\      /  F ield         | OpenFOAM: The Open Source CFD Toolbox           |
|  \\    /   O peration     | Version:  2312                                  |
|   \\  /    A nd           | Website:  www.openfoam.com                      |
|    \\/     M anipulation  |                                                 |
\*---------------------------------------------------------------------------*/
FoamFile
{
    version     2.0;
    format      ascii;
    arch        "LSB;label=32;scalar=64";
    class       surfaceScalarField;
    location    "1600";
    object      phi;
}
// * * * * * * * * * * * * * * * * * * * * * * * * * * * * * * * * * * * * * //

dimensions      [0 3 -1 0 0 0 0];

oriented        oriented;

internalField   nonuniform List<scalar> 
116611
(
0.0293999
0.0110175
-0.0289946
-0.0114229
0.0298007
0.0109082
-0.0113089
0.0301987
0.010791
-0.011189
0.0305926
0.010665
-0.0110589
0.0309783
0.0105282
-0.0109139
0.0313652
0.0103799
-0.0107667
0.0317365
0.0102212
-0.0105926
0.0321086
0.0100516
-0.0104236
0.0324731
0.0098703
-0.0102348
0.0328337
0.00967865
-0.0100393
0.0331847
0.00947317
-0.0098242
0.0335294
0.00925521
-0.00959989
0.0338668
0.0090242
-0.00936164
0.0342006
0.00877966
-0.00911343
0.0345292
0.00852257
-0.00885114
0.034846
0.00825261
-0.00856945
0.0351575
0.00796557
-0.00827709
0.0354575
0.00766624
-0.00796618
0.0357462
0.00734785
-0.00763661
0.0360264
0.00701815
-0.00729838
0.036301
0.00666743
-0.00694199
0.0365658
0.0063027
-0.00656745
0.0368208
0.00592078
-0.0061758
0.0370669
0.00552158
-0.00576767
0.0372996
0.00510381
-0.00533651
0.0375219
0.00466694
-0.00488925
0.0377324
0.00420899
-0.0044195
0.0379223
0.00373336
-0.00392326
0.0381035
0.00323595
-0.0034171
0.0382604
0.00271663
-0.00287354
0.0384088
0.00218093
-0.00232936
0.0385388
0.0016177
-0.00174771
0.0386507
0.00103237
-0.00114428
0.0387445
0.0004274
-0.000521245
0.0388164
-0.000205175
0.000133304
0.0388686
-0.00085763
0.000805425
0.0389024
-0.00153919
0.00150545
0.0389157
-0.00224285
0.00222951
0.0389101
-0.00296975
0.00297534
0.038879
-0.00372693
0.00375802
0.0388265
-0.00450783
0.00456037
0.0387542
-0.00531855
0.0053908
0.0386615
-0.0061547
0.00624743
0.0385439
-0.0070184
0.00713601
0.0384067
-0.00791196
0.00804917
0.0382464
-0.00883532
0.00899558
0.0380703
-0.00978881
0.00996497
0.0378684
-0.0107741
0.0109759
0.037648
-0.0117921
0.0120126
0.0374048
-0.0128431
0.0130863
0.0371398
-0.0139279
0.0141928
0.0368557
-0.0150464
0.0153305
0.0365507
-0.0162003
0.0165053
0.0362239
-0.0173913
0.0177182
0.0358762
-0.0186196
0.0189673
0.0355036
-0.01989
0.0202626
0.0351126
-0.0212013
0.0215923
0.0346966
-0.0225577
0.0229737
0.0342557
-0.0239598
0.0244007
0.0337933
-0.025406
0.0258684
0.0333237
-0.0268957
0.0273653
0.0328412
-0.0284465
0.0289291
0.0323405
-0.0300616
0.0305623
0.0318375
-0.0317386
0.0322416
0.0313415
-0.0334847
0.0339806
0.0308287
-0.0353269
0.0358398
0.0303464
-0.0372575
0.0377398
0.0299347
-0.0392779
0.0396896
-0.041515
0.0295357
0.041914
0.0290039
0.010614
-0.0286003
0.0294032
0.0105089
0.0297988
0.0103954
0.0301909
0.010273
0.0305787
0.0101403
0.0309607
0.00999789
0.0313366
0.00984528
0.0317066
0.00968154
0.0320702
0.00950676
0.0324286
0.00932022
0.0327799
0.00912187
0.0331238
0.00891133
0.03346
0.008688
0.0337883
0.00845132
0.034109
0.00820189
0.0344232
0.00793844
0.0347276
0.00766116
0.0350246
0.00736925
0.0353097
0.00706267
0.0355876
0.00674028
0.0358534
0.00640169
0.036109
0.00604709
0.036354
0.00567573
0.0365885
0.00528708
0.0368116
0.00488068
0.0370231
0.00445546
0.0372204
0.00401169
0.0374049
0.0035489
0.0375748
0.00306601
0.0377283
0.00256316
0.0378698
0.00203939
0.0379938
0.00149373
0.0380998
0.00092635
0.0381905
0.000336696
0.038262
-0.000276626
0.0383171
-0.000912803
0.0383514
-0.00157348
0.0383664
-0.00225785
0.0383636
-0.00296695
0.0383394
-0.00370267
0.0382962
-0.00446468
0.0382313
-0.00525365
0.0381459
-0.00606924
0.0380404
-0.00691291
0.0379144
-0.00778594
0.0377675
-0.0086885
0.0375997
-0.00962102
0.0374103
-0.0105846
0.037199
-0.0115808
0.0369654
-0.0126095
0.036709
-0.0136716
0.0364305
-0.0147679
0.0361296
-0.0158994
0.0358061
-0.0170678
0.0354611
-0.0182746
0.0350932
-0.0195221
0.0347031
-0.0208112
0.0342901
-0.0221447
0.0338548
-0.0235245
0.033401
-0.0249523
0.0329361
-0.0264308
0.0324574
-0.0279678
0.0319664
-0.0295706
0.0314714
-0.0312437
0.0309829
-0.0329961
0.0305003
-0.0348444
0.0300391
-0.0367963
0.0296112
-0.03885
-0.041081
0.0291772
0.0286211
0.0102109
-0.028218
0.0290199
0.0101101
0.0294144
0.0100009
0.0298048
0.00988258
0.0301903
0.00975483
0.0305708
0.00961736
0.0309463
0.00946985
0.0313159
0.00931192
0.0316794
0.00914323
0.0320364
0.00896328
0.0323864
0.0087718
0.0327293
0.00856842
0.0330646
0.00835278
0.0333915
0.00812441
0.0337104
0.00788299
0.0340208
0.00762807
0.0343225
0.00735941
0.0346152
0.00707653
0.0348988
0.00677915
0.0351723
0.00646668
0.0354352
0.00613882
0.0356873
0.00579501
0.0359283
0.00543479
0.0361577
0.00505766
0.0363752
0.00466315
0.0365799
0.00425072
0.0367717
0.00381996
0.0369502
0.00337035
0.0371148
0.00290145
0.0372652
0.00241275
0.0374009
0.00190371
0.0375207
0.00137386
0.0376247
0.000822371
0.0377128
0.000248653
0.0377836
-0.000347468
0.037837
-0.000966194
0.0378719
-0.00160838
0.0378887
-0.00227462
0.0378872
-0.0029655
0.0378664
-0.00368186
0.037826
-0.00442427
0.0377654
-0.00519307
0.037685
-0.00598885
0.0375845
-0.00681239
0.0374631
-0.00766452
0.0373204
-0.00854581
0.0371564
-0.00945696
0.0369706
-0.0103989
0.0367625
-0.0113727
0.0365318
-0.0123788
0.0362785
-0.0134182
0.0360025
-0.0144919
0.0357039
-0.0156008
0.0353828
-0.0167467
0.0350393
-0.0179311
0.034673
-0.0191559
0.0342849
-0.020423
0.0338753
-0.0217351
0.0334455
-0.0230948
0.0329982
-0.0245049
0.0325367
-0.0259693
0.0320637
-0.0274948
0.0315824
-0.0290893
0.0310999
-0.0307611
0.0306249
-0.0325211
0.0301629
-0.0343824
0.0297196
-0.0363529
0.0292951
-0.0384256
-0.0406448
0.0288589
0.0282492
0.00980826
-0.0278466
0.0286478
0.00971151
0.0290419
0.00960674
0.0294314
0.00949314
0.0298159
0.00937034
0.0301953
0.00923799
0.0305693
0.00909582
0.0309376
0.00894356
0.0313
0.00878088
0.0316559
0.00860742
0.0320049
0.00842277
0.0323467
0.00822656
0.0326811
0.00801846
0.0330074
0.00779807
0.0333254
0.00756498
0.0336346
0.00731884
0.0339348
0.00705921
0.0342256
0.00678573
0.0345068
0.00649798
0.0347779
0.00619559
0.0350386
0.00587814
0.0352884
0.00554516
0.035527
0.00519621
0.0357538
0.00483081
0.0359685
0.00444848
0.0361706
0.00404868
0.0363596
0.00363092
0.0365352
0.00319476
0.0366969
0.00273973
0.0368443
0.00226532
0.036977
0.00177101
0.0370947
0.00125621
0.0371968
0.000720269
0.0372829
0.000162552
0.0373522
-0.000416794
0.0374044
-0.00101834
0.0374389
-0.00164296
0.0374556
-0.00229128
0.037454
-0.00296387
0.0374335
-0.00366139
0.0373937
-0.00438447
0.0373343
-0.00513364
0.0372549
-0.0059095
0.0371552
-0.00671272
0.0370348
-0.00754408
0.0368933
-0.00840428
0.0367304
-0.00929407
0.0365458
-0.0102143
0.0363389
-0.0111658
0.0361096
-0.0121495
0.0358576
-0.0131663
0.0355829
-0.0142172
0.0352855
-0.0153034
0.0349655
-0.0164267
0.034623
-0.0175886
0.0342584
-0.0187913
0.0338724
-0.0200369
0.0334657
-0.0213284
0.0330397
-0.0226688
0.0325966
-0.0240618
0.0321397
-0.0255124
0.0316728
-0.0270279
0.031201
-0.0286175
0.0307315
-0.0302916
0.0302718
-0.0320614
0.0298252
-0.0339359
0.0293897
-0.0359173
0.0289539
-0.0379898
-0.040177
0.0284862
0.0278944
0.00940877
-0.0274949
0.0282907
0.00931519
0.0286833
0.00921422
0.0290715
0.00910494
0.0294549
0.00898689
0.0298332
0.00885968
0.0302061
0.00872299
0.0305731
0.00857649
0.0309341
0.00841987
0.0312888
0.0082528
0.0316366
0.00807491
0.0319774
0.00788584
0.0323106
0.00768524
0.0326359
0.00747274
0.0329529
0.00724797
0.0332612
0.00701054
0.0335604
0.00676002
0.0338501
0.00649603
0.0341299
0.00621817
0.0343995
0.00592602
0.0346585
0.00561914
0.0349065
0.00529712
0.0351432
0.00495951
0.0353682
0.00460587
0.035581
0.0042357
0.0357811
0.00384851
0.0359682
0.00344382
0.0361418
0.00302115
0.0363016
0.00258001
0.036447
0.00211988
0.0365778
0.00164024
0.0366935
0.00114051
0.0367936
0.000620146
0.0368777
7.84277e-05
0.0369452
-0.000484316
0.0369958
-0.00106893
0.0370291
-0.00167619
0.0370445
-0.00230674
0.0370418
-0.00296116
0.0370205
-0.00364006
0.0369801
-0.00434407
0.0369202
-0.00507377
0.0368405
-0.0058298
0.0367406
-0.00661282
0.0366201
-0.00742357
0.0364786
-0.00826278
0.0363157
-0.00913121
0.0361311
-0.0100297
0.0359245
-0.0109591
0.0356954
-0.0119204
0.0354438
-0.0129147
0.0351696
-0.013943
0.0348728
-0.0150067
0.0345537
-0.0161075
0.0342123
-0.0172473
0.0338492
-0.0184281
0.033465
-0.0196527
0.0330605
-0.020924
0.0326373
-0.0222456
0.0321978
-0.0236223
0.0317458
-0.0250604
0.0312864
-0.0265685
0.0308257
-0.0281568
0.0303699
-0.0298358
0.0299231
-0.0316146
0.0294829
-0.0334957
0.02904
-0.0354744
0.0285762
-0.037526
-0.0396651
0.0280642
0.0275636
0.00901386
-0.0271687
0.0279558
0.00892301
0.0283447
0.00882524
0.02873
0.00871969
0.029111
0.00860587
0.0294873
0.00848339
0.0298584
0.00835188
0.0302239
0.00821097
0.0305835
0.00806033
0.0309367
0.00789962
0.0312831
0.00772846
0.0316224
0.0075465
0.0319543
0.0073534
0.0322782
0.00714879
0.0325939
0.00693229
0.0329009
0.00670352
0.0331988
0.00646208
0.0334873
0.00620757
0.0337659
0.00593958
0.0340342
0.0056577
0.0342919
0.00536149
0.0345385
0.00505052
0.0347736
0.00472435
0.0349969
0.00438254
0.035208
0.0040246
0.0354065
0.00365008
0.0355918
0.00325847
0.0357637
0.00284929
0.0359216
0.00242204
0.0360653
0.00197621
0.0361943
0.00151127
0.0363081
0.00102667
0.0364064
0.000521897
0.0364886
-3.82479e-06
0.0365543
-0.000550046
0.0366032
-0.00111779
0.0366348
-0.00170779
0.0366487
-0.00232065
0.0366445
-0.00295697
0.0366218
-0.00361735
0.0365802
-0.00430242
0.0365192
-0.00501277
0.0364384
-0.00574907
0.0363376
-0.00651198
0.0362162
-0.00730221
0.036074
-0.00812052
0.0359105
-0.0089677
0.0357254
-0.00984459
0.0355184
-0.0107521
0.0352893
-0.0116913
0.0350379
-0.0126633
0.0347642
-0.0136692
0.0344681
-0.0147106
0.0341497
-0.0157892
0.0338093
-0.0169069
0.0334473
-0.0180661
0.0330643
-0.0192697
0.0326615
-0.0205211
0.0322408
-0.0218249
0.0318055
-0.023187
0.0313602
-0.0246151
0.0309106
-0.0261188
0.0304619
-0.0277082
0.0300172
-0.0293911
0.0295746
-0.031172
0.0291252
-0.0330463
0.0286541
-0.0350033
0.0281406
-0.0370125
-0.0390827
0.0275582
0.0272577
0.00862261
-0.0268665
0.027646
0.00853479
0.0280309
0.00844029
0.0284123
0.00833831
0.0287897
0.00822844
0.0291628
0.00811034
0.029531
0.00798366
0.0298939
0.00784804
0.0302511
0.00770312
0.0306022
0.00754858
0.0309466
0.00738403
0.031284
0.00720909
0.031614
0.0070234
0.0319362
0.0068266
0.0322502
0.00661831
0.0325556
0.00639816
0.0328519
0.00616574
0.0331388
0.00592066
0.0334159
0.00566251
0.0336827
0.00539088
0.0339388
0.00510533
0.0341839
0.00480543
0.0344175
0.00449074
0.0346393
0.00416081
0.0348487
0.00381517
0.0350454
0.00345334
0.0352291
0.00307485
0.0353992
0.0026792
0.0355553
0.00226588
0.0356971
0.00183439
0.0358242
0.0013842
0.0359361
0.000914774
0.0360324
0.000425587
0.0361127
-8.40687e-05
0.0361764
-0.000613817
0.0362234
-0.00116472
0.0362531
-0.00173749
0.0362651
-0.00233272
0.0362592
-0.00295101
0.0362348
-0.00359295
0.0361915
-0.00425918
0.0361291
-0.0049503
0.036047
-0.00566699
0.0359449
-0.00640991
0.0358225
-0.0071798
0.0356794
-0.0079774
0.0355152
-0.00880355
0.0353297
-0.0096591
0.0351226
-0.010545
0.0348936
-0.0114623
0.0346424
-0.0124122
0.0343691
-0.0133959
0.0340735
-0.014415
0.0337557
-0.0154713
0.0334158
-0.0165671
0.0330545
-0.0177047
0.0326725
-0.0188878
0.0322717
-0.0201203
0.0318549
-0.0214081
0.0314261
-0.0227581
0.0309902
-0.0241793
0.0305516
-0.0256802
0.0301124
-0.0272689
0.0296698
-0.0289485
0.0292157
-0.0307179
0.0287357
-0.0325664
0.0282135
-0.034481
0.0276298
-0.0364288
-0.0384126
0.0269596
0.0269735
0.00823328
-0.0265842
0.0273593
0.00814898
0.0277414
0.0080582
0.0281196
0.00796014
0.0284936
0.00785443
0.0288631
0.00774079
0.0292279
0.0076189
0.0295875
0.00748843
0.0299415
0.00734908
0.0302896
0.0072005
0.0306313
0.00704235
0.0309661
0.00687425
0.0312937
0.00669583
0.0316136
0.00650672
0.0319253
0.00630655
0.0322286
0.00609492
0.0325229
0.00587146
0.0328078
0.00563575
0.0330829
0.0053874
0.0333478
0.00512598
0.0336021
0.00485107
0.0338452
0.00456224
0.034077
0.00425903
0.0342968
0.00394099
0.0345043
0.00360766
0.0346991
0.00325856
0.0348807
0.00289321
0.0350488
0.00251111
0.0352029
0.00211176
0.0353427
0.00169464
0.0354677
0.00125923
0.0355775
0.000804976
0.0356717
0.000331363
0.0357498
-0.000162164
0.0358115
-0.000675491
0.0358563
-0.00120961
0.0358841
-0.00176519
0.0358942
-0.00234285
0.0358864
-0.00294319
0.0358602
-0.0035668
0.0358154
-0.00421431
0.0357514
-0.00488635
0.035668
-0.0055836
0.0355648
-0.00630672
0.0354415
-0.00705646
0.0352977
-0.00783357
0.035133
-0.00863888
0.0349471
-0.00947326
0.0347398
-0.0103377
0.0345107
-0.0112332
0.0342597
-0.0121611
0.0339864
-0.0131226
0.033691
-0.0141195
0.0333734
-0.0151537
0.033034
-0.0162277
0.0326736
-0.0173444
0.0322939
-0.018508
0.0318973
-0.0197238
0.0314875
-0.0209982
0.0310683
-0.0223389
0.0306431
-0.0237541
0.0302127
-0.0252498
0.0297736
-0.0268299
0.029317
-0.0284919
0.0288299
-0.0302308
0.0282961
-0.0320325
0.0277008
-0.0338857
0.027029
-0.035757
-0.037642
0.0262584
0.0267076
0.00784484
-0.0263192
0.0270922
0.00776439
0.0274727
0.00767769
0.0278489
0.00758393
0.0282206
0.00748274
0.0285876
0.00737384
0.0289495
0.00725697
0.0293061
0.00713182
0.0296571
0.0069981
0.0300021
0.00685551
0.0303407
0.00670372
0.0306726
0.00654239
0.0309972
0.00637115
0.0313143
0.00618965
0.0316234
0.0059975
0.031924
0.00579433
0.0322157
0.00557974
0.0324981
0.00535334
0.0327707
0.00511473
0.0330333
0.00486348
0.0332852
0.00459917
0.033526
0.00432136
0.0337554
0.00402961
0.033973
0.00372346
0.0341782
0.00340243
0.0343707
0.00306606
0.0345501
0.00271385
0.0347159
0.0023453
0.0348677
0.00195992
0.0350052
0.00155717
0.0351279
0.00113653
0.0352354
0.000697462
0.0353274
0.000239391
0.0354032
-0.000238001
0.0354626
-0.000734932
0.0355053
-0.00125231
0.0355309
-0.00179078
0.035539
-0.00235097
0.0355293
-0.00293347
0.0355014
-0.00353888
0.0354549
-0.00416783
0.0353895
-0.00482095
0.0353048
-0.00549892
0.0352005
-0.0062024
0.0350762
-0.00693214
0.0349315
-0.0076889
0.0347661
-0.00847349
0.0345797
-0.00928683
0.0343719
-0.0101299
0.0341425
-0.0110038
0.0338912
-0.0119098
0.0336179
-0.0128493
0.0333226
-0.0138243
0.0330057
-0.0148368
0.0326679
-0.0158898
0.0323107
-0.0169872
0.0319364
-0.0181337
0.031548
-0.0193354
0.0311486
-0.0205988
0.0307401
-0.0219305
0.0303221
-0.0233361
0.0298898
-0.0248175
0.0294341
-0.0263742
0.028942
-0.0279997
0.028399
-0.0296879
0.0277915
-0.031425
0.0271073
-0.0332015
0.026329
-0.0349787
-0.0367203
0.0254073
0.0264594
0.00745711
-0.0260717
0.0268432
0.00738055
0.0272229
0.00729805
0.0275981
0.00720876
0.0279685
0.00711231
0.0283339
0.00700843
0.028694
0.00689684
0.0290486
0.00677726
0.0293973
0.00664942
0.0297398
0.00651301
0.0300758
0.00636773
0.0304049
0.00621326
0.0307268
0.00604927
0.031041
0.0058754
0.0313472
0.00569128
0.031645
0.00549655
0.0319339
0.00529083
0.0322136
0.00507371
0.0324835
0.00484481
0.0327433
0.0046037
0.0329925
0.00434996
0.0332307
0.00408316
0.0334575
0.00380284
0.0336724
0.00350855
0.033875
0.00319982
0.0340649
0.00287616
0.0342416
0.00253709
0.0344048
0.0021821
0.0345541
0.00181067
0.034689
0.00142229
0.0348091
0.00101642
0.034914
0.000592516
0.0350034
0.000149962
0.0350768
-0.000311345
0.0351338
-0.000791937
0.0351741
-0.00129264
0.0351975
-0.0018141
0.0352034
-0.00235692
0.0351916
-0.00292169
0.0351617
-0.00350901
0.0351134
-0.00411951
0.0350463
-0.00475382
0.03496
-0.00541261
0.0348542
-0.00609657
0.0347285
-0.00680644
0.0345825
-0.00754298
0.0344161
-0.00830705
0.0342288
-0.00909956
0.0340205
-0.00992152
0.0337907
-0.0107741
0.0335395
-0.0116586
0.0332668
-0.0125766
0.0329729
-0.0135304
0.0326587
-0.0145226
0.0323255
-0.0155567
0.0319756
-0.0166373
0.0316113
-0.0177694
0.0312346
-0.0189587
0.0308461
-0.0202103
0.0304437
-0.0215281
0.0300214
-0.0229138
0.0295695
-0.0243656
0.0290752
-0.02588
0.0285255
-0.0274499
0.0279084
-0.0290709
0.0272149
-0.0307315
0.0264345
-0.0324211
0.0255415
-0.0340857
-0.0356418
0.0244629
0.0262301
0.00707021
-0.0258432
0.0266132
0.0069975
0.026992
0.00691918
0.0273664
0.00683438
0.027736
0.00674274
0.0281004
0.00664397
0.0284595
0.00653781
0.0288128
0.00642397
0.02916
0.00630218
0.0295009
0.00617214
0.029835
0.00603357
0.0301621
0.00588614
0.0304819
0.00572955
0.0307938
0.00556345
0.0310976
0.00538749
0.0313928
0.00520131
0.0316791
0.00500452
0.0319561
0.00479675
0.0322233
0.0045776
0.0324803
0.00434667
0.0327268
0.00410353
0.0329622
0.00384776
0.0331861
0.00357889
0.0333982
0.00329649
0.0335979
0.00300006
0.033785
0.00268914
0.0339588
0.00236321
0.0341192
0.00202178
0.0342655
0.00166431
0.0343975
0.00129029
0.0345148
0.000899175
0.0346168
0.000490431
0.0347034
6.33748e-05
0.034774
-0.000381901
0.0348283
-0.000846206
0.0348659
-0.00133029
0.0348866
-0.00183479
0.0348899
-0.00236028
0.0348756
-0.00290737
0.0348433
-0.00347667
0.0347926
-0.0040688
0.0347232
-0.00468441
0.0346348
-0.00532419
0.034527
-0.00598883
0.0343997
-0.00667908
0.0342524
-0.00739573
0.034085
-0.00813963
0.0338971
-0.00891172
0.0336886
-0.00971303
0.0334594
-0.0105448
0.0332095
-0.0114086
0.0329393
-0.0123065
0.0326499
-0.0132409
0.0323426
-0.0142152
0.0320191
-0.0152333
0.0316813
-0.0162995
0.0313299
-0.017418
0.0309639
-0.0185927
0.0305795
-0.0198259
0.0301697
-0.0211183
0.0297242
-0.0224683
0.0292308
-0.0238722
0.0286772
-0.0253263
0.0280533
-0.026826
0.0273516
-0.0283691
0.0265658
-0.0299458
0.0256826
-0.0315379
0.0246598
-0.0330629
-0.0343803
0.0233983
0.0260224
0.00668439
-0.0256366
0.0264044
0.00661545
0.0267823
0.00654126
0.0271558
0.00646092
0.0275245
0.00637405
0.0278881
0.0062804
0.0282462
0.00617968
0.0285985
0.00607164
0.0289447
0.00595598
0.0292844
0.00583243
0.0296173
0.00570068
0.029943
0.00556044
0.0302612
0.0054114
0.0305714
0.00525322
0.0308733
0.00508556
0.0311666
0.00490807
0.0314507
0.00472037
0.0317254
0.00452208
0.0319902
0.00431282
0.0322447
0.00409218
0.0324885
0.00385975
0.0327211
0.0036151
0.0329422
0.00335777
0.0331514
0.00308732
0.0333482
0.00280327
0.0335322
0.00250513
0.033703
0.0021924
0.0338602
0.00186456
0.0340035
0.00152109
0.0341323
0.00116146
0.0342463
0.000785122
0.0343452
0.000391547
0.0344286
-1.99567e-05
0.0344959
-0.000449238
0.0345469
-0.000897267
0.0345814
-0.00136475
0.0345989
-0.0018523
0.0345992
-0.00236052
0.0345818
-0.00289004
0.0345466
-0.00344146
0.0344932
-0.00401542
0.0344214
-0.00461259
0.0343309
-0.00523366
0.0342214
-0.00587935
0.0340927
-0.0065504
0.0339446
-0.00724761
0.0337769
-0.00797188
0.0335893
-0.00872421
0.0333821
-0.00950578
0.0331554
-0.0103181
0.0329098
-0.0111631
0.0326465
-0.0120431
0.0323667
-0.0129611
0.0320717
-0.0139202
0.0317622
-0.0149239
0.0314378
-0.015975
0.0310957
-0.0170759
0.0307308
-0.0182277
0.030335
-0.0194301
0.0298978
-0.0206812
0.0294078
-0.0219782
0.0288539
-0.0233183
0.0282268
-0.0246993
0.0275206
-0.0261198
0.0267304
-0.0275789
0.0258479
-0.0290633
0.0248489
-0.0305388
0.0236619
-0.031876
-0.0328637
0.0221454
0.025839
0.00629972
-0.0254543
0.0262199
0.00623452
0.0265968
0.00616442
0.0269692
0.0060885
0.0273368
0.00600639
0.0276994
0.00591783
0.0280565
0.00582256
0.0284079
0.00572031
0.028753
0.00561081
0.0290917
0.00549377
0.0294235
0.00536892
0.029748
0.00523594
0.0300648
0.00509454
0.0303737
0.00494439
0.0306741
0.00478515
0.0309657
0.00461647
0.0312481
0.00443799
0.0315208
0.00424933
0.0317835
0.0040501
0.0320358
0.0038399
0.0322772
0.00361832
0.0325074
0.00338492
0.0327259
0.00313926
0.0329324
0.00288089
0.0331263
0.00260932
0.0333074
0.00232408
0.0334751
0.00202466
0.0336291
0.00171053
0.0337691
0.00138117
0.0338945
0.00103603
0.0340051
0.000674556
0.0341004
0.00029621
0.03418
-9.96141e-05
0.0342437
-0.000512939
0.0342912
-0.000944722
0.0343221
-0.00139566
0.0343362
-0.00186638
0.0343332
-0.0023575
0.0343128
-0.00286965
0.0342748
-0.00340345
0.0342189
-0.00395957
0.034145
-0.00453868
0.0340528
-0.00514146
0.0339421
-0.00576867
0.0338128
-0.0064211
0.0336649
-0.00709963
0.0334983
-0.00780528
0.0333133
-0.00853925
0.0331105
-0.009303
0.0328907
-0.0100983
0.0326549
-0.0109273
0.0324041
-0.0117923
0.0321388
-0.0126958
0.0318586
-0.01364
0.0315613
-0.0146266
0.0312429
-0.0156567
0.0308971
-0.0167301
0.0305154
-0.017846
0.0300876
-0.0190023
0.0296033
-0.0201969
0.0290525
-0.0214275
0.0284273
-0.022693
0.0277219
-0.0239939
0.0269322
-0.0253301
0.0260526
-0.0266993
0.0250655
-0.0280761
0.0239231
-0.0293965
0.022499
-0.0304518
-0.0309114
0.0205467
0.0256824
0.00591602
-0.0252987
0.0260623
0.00585457
0.0264382
0.00578857
0.0268096
0.00571708
0.0271762
0.00563974
0.0275378
0.00555628
0.0278939
0.00546646
0.0282442
0.00537001
0.0285883
0.00526669
0.0289259
0.0051562
0.0292565
0.00503826
0.0295799
0.00491259
0.0298955
0.00477889
0.0302031
0.00463683
0.0305021
0.0044861
0.0307923
0.00432634
0.0310731
0.00415719
0.0313441
0.00397828
0.031605
0.00378921
0.0318553
0.00358959
0.0320947
0.00337899
0.0323226
0.003157
0.0325387
0.00292317
0.0327425
0.00267703
0.0329337
0.00241812
0.0331119
0.00214593
0.0332766
0.00185996
0.0334274
0.00155968
0.0335641
0.00124454
0.0336861
0.000914003
0.0337932
0.000567486
0.033885
0.000204401
0.033961
-0.00017568
0.0340212
-0.000573082
0.0340651
-0.000988692
0.0340927
-0.0014232
0.0341036
-0.00187724
0.0340975
-0.00235146
0.0340743
-0.00284649
0.0340339
-0.00336299
0.033976
-0.00390164
0.0339004
-0.00446316
0.0338073
-0.00504831
0.0336965
-0.00565792
0.0335683
-0.00629291
0.0334231
-0.00695435
0.0332612
-0.00764343
0.0330835
-0.00836153
0.0328907
-0.0091102
0.0326835
-0.00989112
0.0324622
-0.010706
0.0322263
-0.0115564
0.0319739
-0.0124434
0.0317017
-0.0133678
0.0314046
-0.0143295
0.0310757
-0.0153277
0.0307066
-0.0163611
0.0302883
-0.0174277
0.0298115
-0.0185255
0.0292675
-0.0196529
0.0286492
-0.0208092
0.0279513
-0.0219951
0.0271699
-0.0232124
0.0262997
-0.0244599
0.0253283
-0.025728
0.0242174
-0.0269652
0.0228752
-0.0280543
0.0210968
-0.0286735
-0.0284384
0.0186238
0.0255548
0.00553294
-0.0251717
0.0259341
0.00547527
0.0263092
0.0054134
0.0266799
0.00534638
0.0270458
0.00527383
0.0274066
0.00519551
0.0277619
0.00511118
0.0281113
0.00502058
0.0284545
0.00492347
0.0287912
0.00481957
0.0291208
0.00470862
0.0294431
0.00459031
0.0297576
0.00446437
0.0300639
0.00433048
0.0303617
0.00418832
0.0306505
0.00403756
0.0309299
0.00387783
0.0311994
0.00370876
0.0314586
0.00352997
0.0317072
0.00334105
0.0319446
0.00314159
0.0321704
0.00293116
0.0323843
0.0027093
0.0325858
0.00247555
0.0327744
0.00222943
0.0329499
0.00197044
0.0331118
0.00169805
0.0332598
0.00141173
0.0333934
0.00111093
0.0335123
0.000795081
0.0336162
0.000463594
0.0337048
0.000115818
0.0337776
-0.000248495
0.0338345
-0.000629978
0.0338753
-0.00102946
0.0338997
-0.00144764
0.0339076
-0.00188518
0.0338989
-0.00234274
0.0338735
-0.00282104
0.0338313
-0.00332079
0.0337724
-0.00384275
0.033697
-0.00438774
0.0336053
-0.00495664
0.0334978
-0.0055504
0.0333749
-0.00617008
0.0332374
-0.00681679
0.0330857
-0.00749172
0.0329202
-0.00819605
0.032741
-0.00893096
0.0325473
-0.00969743
0.0323375
-0.0104962
0.0321087
-0.0113276
0.0318567
-0.0121915
0.0315761
-0.0130872
0.0312602
-0.0140136
0.0309015
-0.014969
0.0304921
-0.0159517
0.0300242
-0.0169598
0.0294904
-0.0179917
0.0288843
-0.0190468
0.0282008
-0.0201258
0.0274362
-0.0212305
0.0265856
-0.0223619
0.0256378
-0.0235122
0.0245643
-0.0246545
0.0232887
-0.0256896
0.0216429
-0.0264084
0.0193233
-0.0263539
-0.0251723
0.0160572
0.0254586
0.00515005
-0.0250757
0.0258377
0.00509619
0.0262126
0.00503849
0.026583
0.00497596
0.0269486
0.00490825
0.027309
0.00483511
0.0276639
0.00475632
0.0280128
0.00467163
0.0283555
0.00458079
0.0286915
0.00448355
0.0290205
0.00437964
0.029342
0.00426878
0.0296557
0.00415068
0.0299612
0.00402505
0.0302579
0.00389155
0.0305456
0.00374987
0.0308238
0.00359965
0.0310921
0.00344052
0.0313499
0.00327211
0.031597
0.00309401
0.0318328
0.0029058
0.0320569
0.00270705
0.0322689
0.0024973
0.0324683
0.00227608
0.0326549
0.00204289
0.0328281
0.00179723
0.0329876
0.00153856
0.033133
0.00126633
0.0332639
0.000979973
0.0333801
0.000678897
0.0334812
0.000362505
0.0335669
3.00915e-05
0.0336369
-0.000318501
0.0336911
-0.00068417
0.0337294
-0.00106773
0.0337517
-0.00146991
0.0337579
-0.00189143
0.0337482
-0.00233305
0.0337227
-0.00279553
0.0336816
-0.0032797
0.0336253
-0.00378641
0.0335541
-0.00431654
0.0334685
-0.00487103
0.0333689
-0.00545081
0.0332556
-0.00605683
0.0331288
-0.00668997
0.0329881
-0.00735104
0.0328327
-0.00804067
0.0326611
-0.0087593
0.0324707
-0.00950704
0.0322582
-0.0102837
0.0320193
-0.0110887
0.0317489
-0.0119211
0.0314413
-0.0127795
0.0310901
-0.0136624
0.030689
-0.0145679
0.0302312
-0.0154939
0.0297104
-0.0164391
0.0291212
-0.0174025
0.028459
-0.0183846
0.0277201
-0.0193868
0.0268996
-0.02041
0.0259875
-0.0214498
0.0249578
-0.0224824
0.0237495
-0.0234462
0.0222252
-0.0241653
0.0201221
-0.0243053
0.0171392
-0.023371
-0.021408
0.0133749
0.0253973
0.00476683
-0.0250141
0.0257767
0.00471679
0.0261519
0.00466327
0.0265226
0.00460526
0.0268885
0.00454242
0.0272491
0.0044745
0.0276041
0.00440129
0.0279532
0.00432256
0.0282959
0.00423806
0.0286319
0.00414754
0.0289608
0.00405074
0.0292822
0.0039474
0.0295956
0.00383723
0.0299008
0.00371993
0.0301971
0.00359519
0.0304843
0.00346269
0.0307619
0.00332207
0.0310294
0.00317299
0.0312864
0.00301506
0.0315326
0.00284788
0.0317674
0.00267102
0.0319904
0.00248406
0.0322011
0.00228652
0.0323993
0.00207793
0.0325844
0.00185779
0.0327561
0.00162555
0.032914
0.00138067
0.0330577
0.00112258
0.033187
0.000850674
0.0333016
0.000564334
0.0334012
0.000262925
0.0334855
-5.42497e-05
0.0335545
-0.000387481
0.0336081
-0.000737786
0.0336464
-0.001106
0.0336694
-0.0014929
0.0336772
-0.00189928
0.0336701
-0.00232594
0.0336483
-0.00277371
0.033612
-0.00324342
0.0335615
-0.00373593
0.033497
-0.00425204
0.0334185
-0.00479255
0.0333259
-0.00535817
0.0332186
-0.00594953
0.0330957
-0.0065671
0.0329559
-0.00721116
0.032797
-0.0078818
0.0326165
-0.00857884
0.0324113
-0.00930182
0.0321776
-0.01005
0.0319112
-0.0108223
0.0316075
-0.0116173
0.0312613
-0.0124334
0.0308675
-0.0132686
0.0304206
-0.0141209
0.0299154
-0.0149887
0.0293473
-0.015871
0.0287125
-0.0167677
0.0280077
-0.0176797
0.0272282
-0.0186073
0.0263641
-0.0195459
0.0253911
-0.0204768
0.0242537
-0.021345
0.022834
-0.0220265
0.0209078
-0.0222391
0.0181449
-0.0215425
0.0144329
-0.019659
-0.017268
0.0102929
0.0253755
0.00438252
-0.0249912
0.025756
0.0043363
0.0261323
0.00428696
0.0265041
0.00423348
0.026871
0.0041755
0.0272327
0.00411282
0.0275887
0.00404521
0.0279388
0.00397245
0.0282826
0.00389431
0.0286196
0.00381054
0.0289495
0.00372089
0.0292718
0.0036251
0.0295861
0.00352288
0.0298921
0.00341396
0.0301892
0.00329802
0.0304772
0.00317473
0.0307555
0.00304377
0.0310237
0.00290477
0.0312814
0.00275735
0.0315282
0.00260111
0.0317636
0.00243563
0.0319872
0.00226047
0.0321985
0.00207516
0.0323973
0.0018792
0.032583
0.00167207
0.0327553
0.00145322
0.0329139
0.00122208
0.0330585
0.000978043
0.0331887
0.000720478
0.0333043
0.000448726
0.0334051
0.000162087
0.0334909
-0.000140051
0.0335617
-0.000458286
0.0336175
-0.000793593
0.0336583
-0.0011468
0.0336841
-0.00151872
0.033695
-0.00191015
0.0336909
-0.00232188
0.033672
-0.00275473
0.033638
-0.00320945
0.0335889
-0.00368678
0.0335242
-0.00418737
0.0334434
-0.00471179
0.0333458
-0.00526051
0.0332301
-0.00583384
0.0330949
-0.0064319
0.0329384
-0.00705465
0.0327583
-0.00770177
0.0325522
-0.00837274
0.0323172
-0.00906674
0.0320498
-0.00978264
0.0317465
-0.010519
0.0314033
-0.0112741
0.0310161
-0.0120461
0.0305804
-0.0128329
0.0300924
-0.0136329
0.0295487
-0.014445
0.0289465
-0.0152688
0.0282835
-0.0161047
0.0275555
-0.0169518
0.0267523
-0.0178042
0.0258491
-0.0186426
0.024792
-0.0194196
0.0234752
-0.0200282
0.021698
-0.0202493
0.0191617
-0.0197028
0.0156425
-0.0180232
0.0114674
-0.0154839
-0.0132289
0.0074284
0.0254023
0.00399598
-0.0250157
0.0257851
0.00395352
0.0261637
0.00390831
0.0265379
0.00385929
0.0269073
0.00380613
0.0272715
0.00374861
0.0276302
0.00368654
0.0279829
0.00361969
0.0283294
0.00354783
0.0286692
0.00347074
0.0290019
0.00338817
0.0293271
0.00329985
0.0296445
0.00320553
0.0299536
0.00310491
0.0302539
0.00299769
0.030545
0.00288357
0.0308266
0.0027622
0.0310981
0.00263324
0.0313592
0.0024963
0.0316093
0.00235099
0.031848
0.00219689
0.0320749
0.00203355
0.0322896
0.00186048
0.0324916
0.0016772
0.0326805
0.00148317
0.0328559
0.00127782
0.0330174
0.00106056
0.0331647
0.000830759
0.0332974
0.000587769
0.0334153
0.000330894
0.033518
5.93772e-05
0.0336052
-0.000227287
0.0336769
-0.000529954
0.0337328
-0.000849513
0.0337728
-0.00118677
0.0337966
-0.00154254
0.033804
-0.00191759
0.0337948
-0.0023127
0.0337687
-0.00272862
0.0337253
-0.00316604
0.0336641
-0.0036256
0.0335846
-0.00410782
0.0334859
-0.00461313
0.0333672
-0.0051418
0.0332273
-0.00569394
0.0330649
-0.00626946
0.0328783
-0.00686803
0.0326656
-0.00748909
0.0324246
-0.00813179
0.0321529
-0.00879499
0.0318475
-0.00947727
0.0315055
-0.010177
0.0311236
-0.0108923
0.030699
-0.0116215
0.030229
-0.012363
0.0297119
-0.0131158
0.0291465
-0.0138796
0.0285319
-0.0146542
0.0278645
-0.0154373
0.0271337
-0.0162209
0.0263124
-0.0169829
0.0253442
-0.0176744
0.0241236
-0.0181991
0.0224718
-0.0183764
0.0201095
-0.017887
0.0167916
-0.0163849
0.012666
-0.0138976
0.00843983
-0.0112578
-0.00958984
0.00480072
0.0254951
0.00360515
-0.0251043
0.0258823
0.0035663
0.0262656
0.00352507
0.0266445
0.00348037
0.0270187
0.00343189
0.0273879
0.00337941
0.0277517
0.00332275
0.0281097
0.00326169
0.0284615
0.00319602
0.0288067
0.00312553
0.0291449
0.00304998
0.0294757
0.00296911
0.0297985
0.00288267
0.030113
0.00279038
0.0304188
0.00269196
0.0307152
0.0025871
0.031002
0.00247546
0.0312785
0.00235672
0.0315443
0.00223049
0.0317989
0.00209639
0.0320418
0.00195399
0.0322725