/*--------------------------------*- C++ -*----------------------------------*\
| =========                 |                                                 |
| \\      /  F ield         | OpenFOAM: The Open Source CFD Toolbox           |
|  \\    /   O peration     | Version:  2312                                  |
|   \\  /    A nd           | Website:  www.openfoam.com                      |
|    \\/     M anipulation  |                                                 |
\*---------------------------------------------------------------------------*/
FoamFile
{
    version     2.0;
    format      ascii;
    arch        "LSB;label=32;scalar=64";
    class       volVectorField;
    location    "1600";
    object      U;
}
// * * * * * * * * * * * * * * * * * * * * * * * * * * * * * * * * * * * * * //

dimensions      [0 1 -1 0 0 0 0];

internalField   nonuniform List<vector> 
76025
(
(0.993394 -0.191747 0)
(0.998138 -0.192807 1.43781e-20)
(1.003 -0.193721 0)
(1.008 -0.194562 0)
(1.01271 -0.195227 -2.54141e-20)
(1.01776 -0.195806 -4.78541e-20)
(1.02258 -0.196261 8.20867e-20)
(1.02747 -0.19655 -3.45509e-20)
(1.0324 -0.196767 -1.07172e-20)
(1.03741 -0.196879 1.0213e-20)
(1.04235 -0.196861 -2.23324e-23)
(1.04729 -0.196688 2.67412e-20)
(1.05226 -0.196444 -3.5895e-20)
(1.05725 -0.196001 0)
(1.06252 -0.195465 7.71616e-21)
(1.06757 -0.194867 0)
(1.07276 -0.19407 0)
(1.07783 -0.19324 0)
(1.08291 -0.192228 5.99261e-21)
(1.08787 -0.191253 -5.40421e-21)
(1.09291 -0.190027 -4.94964e-21)
(1.09811 -0.188678 -1.33784e-20)
(1.1033 -0.187227 8.75349e-21)
(1.10851 -0.185682 1.05972e-20)
(1.11371 -0.184076 -8.80937e-22)
(1.11878 -0.182463 1.8799e-21)
(1.12404 -0.180547 -7.16546e-21)
(1.12907 -0.178645 6.56464e-21)
(1.13403 -0.176622 -1.70495e-21)
(1.13893 -0.174391 1.32944e-21)
(1.14369 -0.172314 8.67821e-22)
(1.14833 -0.17023 -3.16518e-22)
(1.15305 -0.167722 5.37505e-23)
(1.1576 -0.165449 -6.13689e-22)
(1.162 -0.162962 2.2588e-21)
(1.16621 -0.160708 2.23359e-22)
(1.17031 -0.15836 -7.67201e-22)
(1.17441 -0.1556 5.05456e-22)
(1.17846 -0.153062 3.35297e-23)
(1.18239 -0.150436 -9.82795e-22)
(1.18615 -0.14802 6.64248e-22)
(1.18985 -0.145561 -3.76978e-22)
(1.1936 -0.142759 8.05664e-22)
(1.19736 -0.140248 -1.76631e-21)
(1.20108 -0.137703 -1.9488e-21)
(1.20483 -0.135437 3.89819e-21)
(1.20872 -0.132995 4.29059e-21)
(1.21281 -0.130754 -1.30921e-20)
(1.21703 -0.128616 9.16458e-21)
(1.22144 -0.126623 3.32069e-22)
(1.22609 -0.124733 -2.44542e-20)
(1.23102 -0.122869 -1.02954e-20)
(1.2363 -0.121015 1.03502e-20)
(1.24194 -0.1192 0)
(1.24804 -0.117461 -1.15328e-20)
(1.25454 -0.116043 -1.15075e-20)
(1.26156 -0.114531 9.68492e-23)
(1.26919 -0.11316 -1.24371e-20)
(1.27739 -0.111906 1.38513e-20)
(1.28616 -0.110548 -4.24149e-20)
(1.2957 -0.108872 -2.85074e-20)
(1.30678 -0.107505 1.83231e-21)
(1.31904 -0.105941 0)
(1.33255 -0.104127 8.89955e-20)
(1.34792 -0.101717 -3.98727e-20)
(1.36545 -0.0995399 1.94603e-20)
(1.38485 -0.096412 -4.49817e-20)
(1.40764 -0.090927 4.69364e-20)
(1.43572 -0.0863012 1.05163e-19)
(0.992066 -0.200427 1.54409e-20)
(0.997108 -0.201516 4.36043e-20)
(1.0022 -0.202456 -5.80305e-20)
(1.00735 -0.203236 0)
(1.0125 -0.203935 6.47235e-20)
(1.01771 -0.20446 -1.96975e-21)
(1.02293 -0.204885 -4.92251e-20)
(1.02811 -0.205166 0)
(1.03332 -0.205306 -5.18591e-23)
(1.03853 -0.205328 -1.04527e-20)
(1.04379 -0.205226 9.93338e-21)
(1.04903 -0.204985 1.53784e-23)
(1.05424 -0.204622 0)
(1.05943 -0.204134 0)
(1.06465 -0.203461 1.47542e-20)
(1.06987 -0.202728 -3.78288e-20)
(1.07511 -0.20181 -6.83665e-21)
(1.08033 -0.20082 1.86548e-20)
(1.08554 -0.199652 -1.23214e-20)
(1.09069 -0.198419 5.52088e-21)
(1.09583 -0.197039 -4.42015e-21)
(1.10093 -0.195536 9.50425e-21)
(1.10602 -0.193921 -7.64953e-21)
(1.11108 -0.192197 1.07238e-20)
(1.11613 -0.190363 -6.77432e-21)
(1.12115 -0.188462 -7.78535e-21)
(1.12613 -0.186423 4.99549e-21)
(1.13104 -0.184328 0)
(1.13588 -0.182145 0)
(1.14063 -0.179871 8.79055e-22)
(1.14532 -0.177501 0)
(1.14999 -0.175069 2.99723e-23)
(1.15455 -0.172573 4.78755e-22)
(1.159 -0.170061 -8.86827e-22)
(1.16336 -0.167527 1.06021e-22)
(1.16766 -0.164923 -6.87575e-22)
(1.17189 -0.162259 0)
(1.17601 -0.159567 -2.24003e-21)
(1.18007 -0.156894 1.85793e-21)
(1.18408 -0.154268 -1.65686e-21)
(1.18804 -0.151655 1.10192e-21)
(1.19197 -0.149039 -1.45482e-24)
(1.19588 -0.146461 4.75461e-22)
(1.19981 -0.143985 -4.42599e-22)
(1.20379 -0.141563 3.9466e-21)
(1.20785 -0.139196 -2.03618e-21)
(1.212 -0.136866 -2.17832e-21)
(1.21629 -0.134665 4.43532e-21)
(1.22071 -0.132566 1.38505e-20)
(1.2253 -0.130557 1.54453e-22)
(1.23009 -0.12864 1.47168e-20)
(1.23511 -0.126814 -5.16394e-21)
(1.24042 -0.125091 -1.61308e-20)
(1.24608 -0.123505 1.04863e-20)
(1.25213 -0.122042 0)
(1.25865 -0.120712 3.46497e-20)
(1.26567 -0.119469 6.44731e-22)
(1.27328 -0.1184 -1.20302e-20)
(1.28155 -0.11746 -1.24556e-20)
(1.29057 -0.116571 0)
(1.30058 -0.115601 1.44082e-20)
(1.31183 -0.114582 4.50804e-20)
(1.32446 -0.113631 0)
(1.33863 -0.112552 -3.47225e-20)
(1.35477 -0.111157 1.68263e-20)
(1.37341 -0.109517 -3.93492e-20)
(1.39479 -0.10731 2.02474e-20)
(1.41944 -0.103814 -4.76793e-20)
(1.44814 -0.10159 -5.24305e-20)
(0.99048 -0.209762 -7.78837e-20)
(0.995822 -0.210871 4.68673e-20)
(1.00121 -0.211828 -1.48016e-20)
(1.00662 -0.212612 5.53782e-20)
(1.01206 -0.213264 -6.87014e-20)
(1.01752 -0.213778 -5.07006e-20)
(1.02301 -0.214157 6.28896e-20)
(1.02852 -0.214394 0)
(1.03404 -0.214489 -5.18426e-23)
(1.03956 -0.214443 0)
(1.04507 -0.214259 -1.00846e-20)
(1.05058 -0.213935 9.53538e-21)
(1.05607 -0.213467 4.39005e-20)
(1.06153 -0.212865 -3.48787e-20)
(1.06696 -0.212117 7.95465e-21)
(1.07238 -0.211234 2.17342e-20)
(1.07778 -0.210213 -7.35926e-21)
(1.08316 -0.209056 -6.42738e-21)
(1.08851 -0.207764 -1.7018e-20)
(1.09384 -0.206334 1.12509e-20)
(1.09913 -0.204783 4.77437e-21)
(1.10435 -0.203111 -8.31293e-21)
(1.10953 -0.20132 4.53336e-21)
(1.11466 -0.199417 3.32675e-21)
(1.11974 -0.197408 0)
(1.12475 -0.195302 -2.3982e-21)
(1.1297 -0.193107 -1.77809e-21)
(1.13457 -0.190819 2.24532e-21)
(1.13939 -0.18844 0)
(1.14413 -0.185984 -1.51256e-21)
(1.14882 -0.183443 1.92602e-22)
(1.15343 -0.180854 -2.64778e-22)
(1.15795 -0.178235 0)
(1.16239 -0.175571 4.07084e-22)
(1.16676 -0.17287 -2.14724e-21)
(1.17108 -0.170112 1.51143e-21)
(1.17531 -0.167344 0)
(1.17947 -0.16457 1.8249e-21)
(1.18358 -0.16179 -1.92479e-21)
(1.18765 -0.159038 -3.53598e-22)
(1.19169 -0.156312 0)
(1.19569 -0.153629 -8.43968e-22)
(1.19969 -0.150992 -4.62517e-22)
(1.20371 -0.148406 4.74493e-22)
(1.20777 -0.145886 -2.92192e-21)
(1.21188 -0.143453 -2.0665e-21)
(1.21606 -0.141122 4.27899e-21)
(1.22035 -0.138905 -4.52228e-21)
(1.22477 -0.136811 4.52112e-21)
(1.22935 -0.134845 -4.58678e-21)
(1.23412 -0.133015 -4.876e-21)
(1.23911 -0.131321 9.70471e-21)
(1.2444 -0.129765 0)
(1.25003 -0.128356 1.01413e-20)
(1.25605 -0.127098 -5.24982e-22)
(1.26253 -0.126015 -1.119e-20)
(1.26956 -0.125105 -1.16116e-20)
(1.27721 -0.124372 2.34614e-20)
(1.28561 -0.123792 7.49771e-22)
(1.29486 -0.12332 1.21474e-20)
(1.30518 -0.122905 -2.53751e-20)
(1.3168 -0.122585 -1.2161e-20)
(1.32996 -0.122327 1.2301e-21)
(1.34493 -0.122021 -1.51093e-20)
(1.36216 -0.121555 -1.72637e-20)
(1.38216 -0.120846 -5.27959e-20)
(1.40522 -0.119662 0)
(1.43158 -0.117347 -2.38508e-20)
(1.46107 -0.115862 2.29179e-20)
(0.988614 -0.219673 0)
(0.994309 -0.220783 1.56677e-20)
(1.00005 -0.221736 7.44334e-20)
(1.00579 -0.222514 -5.90812e-20)
(1.01154 -0.223139 -4.05656e-20)
(1.01731 -0.22362 6.73878e-20)
(1.0231 -0.223953 -1.25832e-20)
(1.02891 -0.224135 1.20294e-20)
(1.03472 -0.224166 1.13925e-20)
(1.04054 -0.224046 4.21365e-20)
(1.04635 -0.223775 -4.19785e-20)
(1.05214 -0.223354 -3.74434e-20)
(1.05792 -0.222779 1.06994e-20)
(1.06368 -0.222052 3.39651e-20)
(1.0694 -0.221176 -2.42548e-20)
(1.07509 -0.220151 7.28269e-21)
(1.08073 -0.21898 -6.72635e-21)
(1.08634 -0.217664 -6.17913e-21)
(1.0919 -0.216207 1.68442e-20)
(1.09741 -0.214611 -5.89254e-21)
(1.10286 -0.212881 -4.83106e-21)
(1.10826 -0.21102 0)
(1.1136 -0.209034 -6.69231e-21)
(1.11887 -0.206929 3.6152e-21)
(1.12407 -0.204715 5.04239e-21)
(1.12919 -0.202398 3.59919e-21)
(1.13422 -0.199982 -7.76201e-21)
(1.13918 -0.197471 2.72211e-21)
(1.14406 -0.194873 0)
(1.14885 -0.192198 9.44695e-22)
(1.15356 -0.189457 -3.60442e-22)
(1.15818 -0.186665 4.04166e-22)
(1.16272 -0.183829 -1.01596e-21)
(1.16718 -0.180958 3.16214e-21)
(1.17157 -0.178047 -5.37938e-22)
(1.17588 -0.175106 0)
(1.18011 -0.17216 0)
(1.18427 -0.169219 6.80148e-22)
(1.18837 -0.166293 6.90273e-22)
(1.19242 -0.163404 4.00605e-22)
(1.19643 -0.160563 -1.33399e-23)
(1.20041 -0.157777 4.32838e-22)
(1.20438 -0.155054 0)
(1.20835 -0.152408 -2.30085e-23)
(1.21236 -0.149858 0)
(1.21641 -0.147417 2.12362e-21)
(1.22053 -0.145091 9.35827e-23)
(1.22475 -0.142891 -6.58597e-21)
(1.22909 -0.140833 0)
(1.23359 -0.138926 -4.71812e-21)
(1.23828 -0.137175 4.64683e-21)
(1.2432 -0.135588 -9.79734e-21)
(1.24841 -0.134176 0)
(1.25396 -0.132952 -3.01616e-20)
(1.25992 -0.13193 -4.59124e-22)
(1.26637 -0.131124 1.01822e-20)
(1.27339 -0.130532 1.04743e-20)
(1.28109 -0.130162 0)
(1.2896 -0.130006 0)
(1.29907 -0.130049 -1.22525e-20)
(1.30969 -0.130262 2.55732e-20)
(1.32172 -0.130635 2.6864e-20)
(1.33548 -0.131143 0)
(1.35134 -0.131723 -2.73598e-20)
(1.36979 -0.132261 0)
(1.39125 -0.132596 5.35144e-20)
(1.41582 -0.132545 -1.76285e-20)
(1.44343 -0.13145 -2.23408e-20)
(1.47306 -0.131199 -2.27578e-20)
(0.986793 -0.230183 0)
(0.99278 -0.231269 0)
(0.998846 -0.232193 1.56135e-20)
(1.00492 -0.232935 -5.82428e-20)
(1.01101 -0.233518 7.21634e-20)
(1.01711 -0.233948 -1.34824e-20)
(1.02323 -0.234223 0)
(1.02936 -0.234338 -1.22003e-20)
(1.03549 -0.234292 0)
(1.04162 -0.234083 -2.12715e-20)
(1.04773 -0.233711 1.26451e-21)
(1.05383 -0.233177 1.99599e-20)
(1.05991 -0.232481 0)
(1.06596 -0.231622 -1.63544e-20)
(1.07198 -0.230603 4.72217e-20)
(1.07795 -0.229426 -2.9358e-20)
(1.08387 -0.228093 3.36713e-20)
(1.08974 -0.226606 -6.60485e-21)
(1.09555 -0.224969 5.45229e-21)
(1.10128 -0.223186 -5.17179e-21)
(1.10695 -0.221262 -4.14135e-21)
(1.11255 -0.219201 1.234e-20)
(1.11806 -0.21701 6.92604e-21)
(1.1235 -0.214694 0)
(1.12884 -0.212262 -4.46556e-21)
(1.1341 -0.209721 -1.17621e-21)
(1.13926 -0.20708 5.20612e-21)
(1.14433 -0.204346 -1.21869e-21)
(1.14929 -0.201529 7.51545e-22)
(1.15415 -0.198639 -1.07425e-21)
(1.15892 -0.195688 -4.78726e-22)
(1.16358 -0.192686 4.55049e-22)
(1.16815 -0.189645 0)
(1.17262 -0.186584 -7.04824e-22)
(1.177 -0.183487 -8.98378e-22)
(1.18129 -0.180369 0)
(1.1855 -0.177254 1.36998e-21)
(1.18963 -0.174154 -2.18527e-21)
(1.19369 -0.171083 1.47892e-21)
(1.19769 -0.168056 -8.33616e-22)
(1.20164 -0.165085 -1.4927e-23)
(1.20556 -0.162181 -7.13269e-22)
(1.20946 -0.159356 2.35077e-22)
(1.21336 -0.156627 9.92074e-22)
(1.21727 -0.154006 -2.15582e-23)
(1.22123 -0.151508 6.34721e-21)
(1.22525 -0.149145 0)
(1.22936 -0.146933 4.45408e-21)
(1.23359 -0.144887 9.43306e-23)
(1.23797 -0.14302 -4.51083e-21)
(1.24254 -0.141343 0)
(1.24736 -0.139868 -4.74428e-21)
(1.25246 -0.138609 4.67303e-21)
(1.25793 -0.137579 9.82814e-21)
(1.26382 -0.136795 0)
(1.27024 -0.13627 -2.01407e-20)
(1.27726 -0.136015 1.99669e-20)
(1.28501 -0.136041 -2.03536e-20)
(1.29363 -0.136349 3.52175e-22)
(1.30329 -0.136938 0)
(1.31423 -0.137794 -1.14292e-20)
(1.32675 -0.13892 1.23953e-20)
(1.34125 -0.140288 1.09487e-20)
(1.35817 -0.141839 2.74971e-20)
(1.37791 -0.143448 -4.09179e-20)
(1.4007 -0.144918 3.07723e-20)
(1.42635 -0.146078 -1.58996e-20)
(1.45445 -0.146189 1.51094e-20)
(1.48324 -0.147415 6.37005e-20)
(0.985255 -0.241393 -6.78025e-20)
(0.991476 -0.242447 2.60634e-21)
(0.997802 -0.243326 6.50691e-20)
(1.00416 -0.244015 0)
(1.01055 -0.244535 -1.4423e-20)
(1.01698 -0.244895 0)
(1.02343 -0.245092 2.54806e-20)
(1.02988 -0.245123 -1.27503e-21)
(1.03634 -0.244982 -3.56407e-20)
(1.04279 -0.244669 1.09477e-20)
(1.04923 -0.244183 1.03806e-20)
(1.05565 -0.243523 9.5911e-21)
(1.06204 -0.242691 0)
(1.06839 -0.241686 0)
(1.0747 -0.24051 -7.86103e-21)
(1.08096 -0.239166 -7.25683e-21)
(1.08716 -0.237656 1.25048e-20)
(1.0933 -0.235983 -1.25006e-20)
(1.09936 -0.234151 -1.07199e-20)
(1.10535 -0.232165 9.05634e-21)
(1.11125 -0.230029 -1.73602e-20)
(1.11707 -0.227751 7.36936e-22)
(1.12279 -0.225336 6.52383e-21)
(1.1284 -0.222793 2.4471e-21)
(1.13392 -0.220128 3.78681e-21)
(1.13933 -0.217352 -3.80182e-21)
(1.14463 -0.214473 -1.84732e-21)
(1.14981 -0.2115 1.85715e-21)
(1.15487 -0.208445 0)
(1.15982 -0.205318 0)
(1.16466 -0.202131 1.81224e-21)
(1.16937 -0.198896 6.2331e-22)
(1.17397 -0.195627 -1.32232e-21)
(1.17846 -0.192343 -2.14002e-21)
(1.18284 -0.189021 2.11729e-21)
(1.18712 -0.185688 0)
(1.1913 -0.182365 -1.37803e-21)
(1.19539 -0.179068 -2.47882e-21)
(1.19939 -0.175812 1.62414e-21)
(1.20333 -0.172613 -3.1449e-23)
(1.2072 -0.169485 -1.52407e-22)
(1.21103 -0.166442 7.16254e-22)
(1.21483 -0.163499 5.17354e-22)
(1.21861 -0.160672 1.06165e-21)
(1.22241 -0.157974 -5.32473e-21)
(1.22624 -0.155422 -2.21653e-23)
(1.23013 -0.153032 0)
(1.2341 -0.150817 -4.45242e-21)
(1.23819 -0.148795 1.35266e-20)
(1.24244 -0.146979 -8.94116e-21)
(1.24689 -0.145385 -4.57179e-21)
(1.25159 -0.144028 5.28011e-23)
(1.2566 -0.142924 -4.73869e-21)
(1.26197 -0.142092 -1.49975e-22)
(1.2678 -0.141552 9.04403e-21)
(1.27417 -0.141322 -8.73984e-21)
(1.28119 -0.14142 -9.29629e-21)
(1.28898 -0.141864 1.85165e-20)
(1.2977 -0.142667 6.91613e-22)
(1.30758 -0.143842 9.72834e-21)
(1.31891 -0.145399 -9.53291e-21)
(1.33206 -0.147344 1.08421e-20)
(1.34747 -0.149647 -2.27986e-20)
(1.3655 -0.152237 -1.18253e-20)
(1.38639 -0.15498 2.48022e-20)
(1.41008 -0.157652 -1.17003e-20)
(1.43602 -0.160108 -4.31985e-20)
(1.46364 -0.16155 -1.99858e-20)
(1.49078 -0.164349 0)
(0.984001 -0.253356 0)
(0.990485 -0.254379 -1.7124e-20)
(0.997073 -0.255213 1.1298e-22)
(1.0037 -0.25584 0)
(1.01037 -0.256287 0)
(1.01708 -0.256563 -1.39509e-20)
(1.02383 -0.256665 3.89306e-20)
(1.0306 -0.25659 -4.9896e-20)
(1.03738 -0.256334 2.4269e-20)
(1.04415 -0.255895 -1.10786e-20)
(1.05091 -0.255271 0)
(1.05765 -0.254465 -9.70468e-21)
(1.06435 -0.253474 8.8116e-21)
(1.07101 -0.252301 0)
(1.07762 -0.250947 0)
(1.08418 -0.249414 -6.5069e-21)
(1.09067 -0.247704 1.24379e-21)
(1.09708 -0.245823 1.20353e-20)
(1.10342 -0.243774 9.97574e-21)
(1.10966 -0.241562 -9.61158e-21)
(1.1158 -0.239193 -4.10907e-21)
(1.12185 -0.236674 -1.28465e-20)
(1.12778 -0.234013 6.00257e-22)
(1.1336 -0.231216 1.53938e-21)
(1.13929 -0.228294 -4.02354e-21)
(1.14487 -0.225256 9.86842e-22)
(1.15031 -0.222112 -1.97971e-21)
(1.15562 -0.218874 0)
(1.16079 -0.215552 0)
(1.16583 -0.21216 0)
(1.17074 -0.208709 -4.50022e-22)
(1.17551 -0.205215 -1.51971e-21)
(1.18014 -0.201691 1.76887e-21)
(1.18464 -0.198158 2.56956e-21)
(1.18902 -0.19459 -2.53572e-21)
(1.19328 -0.191024 0)
(1.19742 -0.18748 1.7065e-21)
(1.20145 -0.183977 -8.47067e-22)
(1.20539 -0.18053 0)
(1.20924 -0.177154 9.70581e-22)
(1.21302 -0.173866 -1.8949e-22)
(1.21674 -0.170681 1.26683e-22)
(1.22042 -0.167615 -5.20565e-22)
(1.22409 -0.164683 0)
(1.22775 -0.161903 -2.22657e-21)
(1.23145 -0.159289 2.19409e-21)
(1.2352 -0.15686 0)
(1.23903 -0.154632 -2.7613e-23)
(1.24299 -0.152624 -5.49792e-23)
(1.24711 -0.150851 4.50463e-21)
(1.25143 -0.149333 0)
(1.25601 -0.148087 1.79464e-22)
(1.2609 -0.147137 -4.46886e-21)
(1.26619 -0.146501 -1.2788e-20)
(1.27193 -0.146206 3.34016e-22)
(1.27824 -0.146275 8.80333e-21)
(1.28524 -0.146736 0)
(1.29307 -0.147615 0)
(1.30194 -0.148944 7.55751e-21)
(1.31214 -0.15075 0)
(1.32401 -0.15306 0)
(1.33795 -0.155877 1.17486e-21)
(1.35432 -0.159166 -8.52658e-21)
(1.3733 -0.162833 -1.78877e-20)
(1.39487 -0.166746 1.82674e-20)
(1.41864 -0.170674 4.91818e-21)
(1.44389 -0.174532 1.36699e-20)
(1.47002 -0.177446 1.30117e-20)
(1.49456 -0.182067 0)
(0.982886 -0.266093 0)
(0.989716 -0.267093 1.73375e-20)
(0.996634 -0.267883 -4.88702e-20)
(1.00357 -0.268449 1.64409e-20)
(1.01055 -0.268818 0)
(1.01757 -0.269 4.15849e-20)
(1.02462 -0.268994 -6.6558e-20)
(1.03169 -0.268797 1.44404e-21)
(1.03878 -0.268406 5.88133e-20)
(1.04586 -0.26782 -1.18159e-20)
(1.05294 -0.267038 1.01105e-20)
(1.05999 -0.26606 9.35849e-21)
(1.067 -0.264888 -2.57862e-20)
(1.07397 -0.263523 3.23093e-20)
(1.08089 -0.261966 -1.54405e-20)
(1.08774 -0.260219 5.87906e-21)
(1.09452 -0.258285 -2.41554e-20)
(1.10122 -0.256169 6.26267e-21)
(1.10782 -0.253876 -3.93204e-21)
(1.11432 -0.251411 5.10571e-21)
(1.12071 -0.248781 1.19853e-21)
(1.12699 -0.245994 1.75996e-20)
(1.13314 -0.243057 1.45953e-21)
(1.13915 -0.23998 -1.10399e-21)
(1.14503 -0.236773 -4.07323e-21)
(1.15077 -0.233446 9.93077e-22)
(1.15636 -0.230011 5.90773e-24)
(1.1618 -0.22648 -5.48414e-22)
(1.16708 -0.222866 0)
(1.17221 -0.219182 -1.40139e-21)
(1.17718 -0.215445 1.4114e-21)
(1.182 -0.211668 2.65981e-22)
(1.18666 -0.207866 -1.38069e-21)
(1.19117 -0.204059 -1.57436e-21)
(1.19554 -0.200229 5.06422e-21)
(1.19977 -0.196412 -3.29596e-21)
(1.20387 -0.192629 2.88529e-21)
(1.20785 -0.1889 -3.87889e-21)
(1.21171 -0.185242 1.97112e-21)
(1.21547 -0.181671 -5.05569e-22)
(1.21915 -0.178204 0)
(1.22276 -0.174858 5.5942e-22)
(1.22632 -0.17165 -5.51616e-22)
(1.22986 -0.168599 -1.14379e-21)
(1.23339 -0.165721 3.4241e-21)
(1.23695 -0.163035 -2.28004e-21)
(1.24056 -0.160559 -2.26199e-21)
(1.24425 -0.158311 0)
(1.24807 -0.156311 -8.93954e-21)
(1.25204 -0.154577 8.8151e-21)
(1.25623 -0.153131 -4.38805e-21)
(1.26068 -0.151993 4.36627e-21)
(1.26545 -0.151191 4.07802e-21)
(1.27062 -0.150748 8.25364e-21)
(1.27627 -0.150696 8.20823e-21)
(1.28252 -0.151066 0)
(1.28952 -0.1519 -6.8916e-21)
(1.29746 -0.153237 0)
(1.30662 -0.155127 -6.46003e-22)
(1.3173 -0.157606 -7.59596e-21)
(1.32988 -0.16071 6.67105e-21)
(1.34463 -0.164422 7.56858e-21)
(1.36176 -0.168708 -5.67889e-21)
(1.38116 -0.173447 7.37343e-22)
(1.40256 -0.178548 -1.54416e-21)
(1.42536 -0.183781 2.60611e-20)
(1.44885 -0.189151 7.86803e-21)
(1.47256 -0.193722 1.2389e-20)
(1.49374 -0.200331 -1.19223e-20)
(0.981775 -0.279647 0)
(0.98902 -0.280623 0)
(0.996342 -0.281371 -3.2816e-20)
(1.00367 -0.281874 4.85259e-20)
(1.01102 -0.282163 1.50115e-20)
(1.0184 -0.282247 0)
(1.0258 -0.282127 0)
(1.03321 -0.2818 -1.24138e-20)
(1.04063 -0.281263 2.26389e-20)
(1.04804 -0.280516 -1.76879e-21)
(1.05544 -0.279557 -5.06257e-20)
(1.06281 -0.278389 9.92313e-21)
(1.07015 -0.277013 -8.03088e-21)
(1.07743 -0.27543 1.63423e-20)
(1.08465 -0.273643 -6.84344e-21)
(1.09181 -0.271655 0)
(1.09888 -0.269469 0)
(1.10585 -0.26709 6.12474e-22)
(1.11273 -0.264524 1.33283e-20)
(1.11949 -0.261778 -3.91516e-21)
(1.12612 -0.258857 2.73797e-21)
(1.13263 -0.255771 -2.69376e-21)
(1.13899 -0.252528 -1.58598e-21)
(1.14521 -0.24914 2.17091e-21)
(1.15127 -0.245616 9.93813e-22)
(1.15717 -0.241969 0)
(1.16291 -0.238212 0)
(1.16847 -0.234358 1.13111e-21)
(1.17386 -0.230421 0)
(1.17907 -0.226419 1.98653e-21)
(1.18411 -0.222365 -1.99999e-21)
(1.18897 -0.218277 -1.1815e-21)
(1.19366 -0.214172 1.38889e-21)
(1.19818 -0.210061 3.44273e-21)
(1.20254 -0.205942 -1.7251e-21)
(1.20674 -0.201848 -2.03743e-21)
(1.21079 -0.197802 2.13e-21)
(1.21469 -0.193824 0)
(1.21847 -0.189932 0)
(1.22214 -0.186145 5.95504e-22)
(1.22571 -0.182481 0)
(1.22921 -0.178959 0)
(1.23265 -0.175598 -1.80515e-21)
(1.23605 -0.172415 2.39625e-21)
(1.23944 -0.16943 -1.20941e-21)
(1.24285 -0.166661 2.32306e-21)
(1.24631 -0.164128 0)
(1.24985 -0.161849 6.86053e-21)
(1.25351 -0.159846 -5.75763e-24)
(1.25733 -0.15814 0)
(1.26136 -0.156755 -8.49674e-21)
(1.26566 -0.155716 2.86781e-23)
(1.2703 -0.155052 -8.05179e-21)
(1.27535 -0.154795 -3.64038e-21)
(1.28093 -0.154984 -7.06562e-21)
(1.28718 -0.155663 6.94547e-21)
(1.2943 -0.156885 6.91643e-21)
(1.30252 -0.158706 0)
(1.31214 -0.161183 -5.51862e-21)
(1.32345 -0.164356 -6.33144e-22)
(1.33672 -0.16825 0)
(1.35204 -0.172833 0)
(1.36933 -0.17807 5.66752e-21)
(1.38827 -0.183846 0)
(1.4084 -0.190133 0)
(1.42918 -0.196714 -4.62554e-21)
(1.44999 -0.203694 -9.16645e-21)
(1.47045 -0.210049 -5.40734e-21)
(1.48721 -0.218364 0)
(0.980641 -0.294082 0)
(0.988341 -0.295028 0)
(0.996117 -0.295729 0)
(1.00389 -0.296167 1.5983e-20)
(1.01168 -0.296372 1.42544e-20)
(1.01948 -0.296356 -1.64881e-21)
(1.02729 -0.296117 -2.74577e-20)
(1.03511 -0.295652 1.2535e-20)
(1.04291 -0.294961 -1.1393e-20)
(1.0507 -0.29404 -2.13644e-20)
(1.05846 -0.292892 0)
(1.06619 -0.291518 0)
(1.07386 -0.289919 -7.15235e-22)
(1.08148 -0.288098 -2.28518e-20)
(1.08903 -0.286057 2.59246e-20)
(1.09649 -0.283802 -1.4632e-21)
(1.10387 -0.281336 -1.11149e-20)
(1.11113 -0.278665 -4.74741e-21)
(1.11829 -0.275795 -6.10946e-22)
(1.12531 -0.272734 0)
(1.1322 -0.269489 -4.86791e-21)
(1.13894 -0.266071 0)
(1.14552 -0.262489 -2.38491e-21)
(1.15194 -0.258755 1.65054e-21)
(1.15819 -0.254881 -3.89191e-22)
(1.16425 -0.250879 8.61066e-22)
(1.17013 -0.246766 -1.94219e-21)
(1.17582 -0.242554 2.40524e-21)
(1.18131 -0.238262 -1.74739e-21)
(1.1866 -0.233904 0)
(1.1917 -0.229499 -3.07951e-21)
(1.19661 -0.225066 -2.2196e-21)
(1.20131 -0.220624 3.51339e-21)
(1.20583 -0.216178 -4.05904e-21)
(1.21016 -0.211739 2.21058e-21)
(1.21432 -0.20734 -2.18108e-21)
(1.21831 -0.203004 -1.1032e-21)
(1.22215 -0.198752 1.2675e-21)
(1.22584 -0.194605 5.9843e-22)
(1.2294 -0.190582 -1.82244e-21)
(1.23285 -0.186702 -1.63342e-22)
(1.23622 -0.182985 0)
(1.23951 -0.179451 6.12015e-22)
(1.24276 -0.176118 -1.22164e-21)
(1.246 -0.173007 1.21322e-21)
(1.24924 -0.170138 0)
(1.25252 -0.16753 0)
(1.25589 -0.165206 2.29874e-21)
(1.25938 -0.163187 -4.54101e-21)
(1.26303 -0.161498 -8.61948e-21)
(1.26691 -0.160165 1.66551e-20)
(1.27107 -0.159215 -3.88064e-21)
(1.2756 -0.158683 3.82736e-21)
(1.28059 -0.158609 3.65056e-21)
(1.2862 -0.159044 -6.31696e-21)
(1.29259 -0.160044 6.20704e-21)
(1.30001 -0.161674 0)
(1.3087 -0.163993 -4.26707e-21)
(1.31891 -0.167056 -4.49552e-22)
(1.3308 -0.170891 3.93306e-21)
(1.34442 -0.175508 0)
(1.35963 -0.180873 0)
(1.37614 -0.186974 0)
(1.39351 -0.193734 2.52492e-21)
(1.41134 -0.201203 4.05077e-22)
(1.42927 -0.209175 4.08109e-21)
(1.44678 -0.217829 -6.69512e-21)
(1.46349 -0.225739 4.30519e-21)
(1.47399 -0.23577 2.5125e-21)
(0.97951 -0.309488 0)
(0.987693 -0.310395 3.53041e-20)
(0.995954 -0.311038 -4.35842e-20)
(1.00421 -0.3114 2.31513e-20)
(1.01248 -0.311512 -4.60983e-20)
(1.02075 -0.311385 -1.40062e-20)
(1.02903 -0.311017 -1.30287e-20)
(1.0373 -0.310405 0)
(1.04555 -0.309547 2.26124e-20)
(1.05377 -0.308442 2.04235e-20)
(1.06195 -0.30709 -1.9922e-20)
(1.07008 -0.305494 8.38985e-21)
(1.07815 -0.303655 -6.77043e-21)
(1.08614 -0.301576 8.84215e-21)
(1.09405 -0.299262 2.41153e-20)
(1.10186 -0.296717 -1.53456e-21)
(1.10957 -0.293945 -1.49781e-21)
(1.11715 -0.290954 -8.48897e-21)
(1.1246 -0.287751 -3.47685e-21)
(1.13191 -0.284343 -4.23034e-21)
(1.13906 -0.280741 4.98709e-21)
(1.14605 -0.276955 0)
(1.15287 -0.272996 7.86502e-22)
(1.15949 -0.268877 0)
(1.16593 -0.264612 -3.14551e-22)
(1.17216 -0.260217 -8.64886e-22)
(1.17818 -0.255706 6.95824e-22)
(1.18399 -0.251098 0)
(1.18958 -0.24641 1.59188e-21)
(1.19496 -0.24166 3.40665e-21)
(1.20011 -0.236868 -3.42767e-21)
(1.20505 -0.232053 1.84029e-21)
(1.20976 -0.227241 -4.58643e-21)
(1.21427 -0.222426 9.17639e-21)
(1.21857 -0.217635 -2.3979e-21)
(1.22268 -0.2129 0)
(1.22659 -0.208243 -1.39228e-21)
(1.23033 -0.203688 1.42999e-22)
(1.23391 -0.199256 2.00604e-21)
(1.23735 -0.194968 -1.68614e-21)
(1.24066 -0.190844 3.23506e-22)
(1.24387 -0.186905 -1.03002e-21)
(1.24699 -0.183173 6.69296e-22)
(1.25007 -0.179669 0)
(1.25312 -0.176413 0)
(1.25618 -0.173428 0)
(1.25928 -0.170735 2.50334e-21)
(1.26247 -0.168355 2.405e-21)
(1.26579 -0.166313 0)
(1.2693 -0.164632 4.44421e-21)
(1.27305 -0.163341 4.14178e-21)
(1.27712 -0.162474 3.80356e-21)
(1.28163 -0.162073 0)
(1.2867 -0.16219 0)
(1.29252 -0.162885 -5.58565e-21)
(1.29929 -0.16422 5.48331e-21)
(1.3072 -0.166257 0)
(1.31643 -0.169047 4.25197e-21)
(1.32708 -0.172629 -3.55448e-21)
(1.3391 -0.177017 -1.25361e-21)
(1.35231 -0.182221 8.78771e-22)
(1.3664 -0.188234 -8.54651e-22)
(1.38102 -0.19509 0)
(1.39581 -0.202789 -5.52903e-22)
(1.41056 -0.211443 -1.70671e-21)
(1.42514 -0.220853 4.85378e-21)
(1.43889 -0.231196 5.02076e-21)
(1.45117 -0.24033 -1.63346e-22)
(1.4532 -0.252109 -2.56052e-21)
(0.978454 -0.325983 9.52538e-21)
(0.987142 -0.326839 0)
(0.995913 -0.327411 8.57643e-21)
(1.00468 -0.327683 -3.9188e-20)
(1.01345 -0.327687 6.76925e-20)
(1.02224 -0.327433 -1.47784e-20)
(1.03102 -0.326921 1.31272e-20)
(1.03979 -0.326144 -2.30193e-20)
(1.04853 -0.325103 1.17066e-20)
(1.05723 -0.323795 1.02624e-20)
(1.06587 -0.322221 8.78077e-21)
(1.07446 -0.320382 -2.39325e-20)
(1.08296 -0.318281 8.50515e-21)
(1.09138 -0.315921 -1.80057e-20)
(1.0997 -0.313307 -4.22847e-21)
(1.10791 -0.310444 1.60776e-21)
(1.11598 -0.307337 8.64017e-21)
(1.12392 -0.303995 0)
(1.13171 -0.300425 0)
(1.13933 -0.296638 1.20321e-21)
(1.14677 -0.292643 1.37048e-21)
(1.15403 -0.288452 -4.33034e-23)
(1.16109 -0.284078 1.13957e-22)
(1.16794 -0.279536 2.50336e-21)
(1.17457 -0.274841 -2.5082e-21)
(1.18098 -0.27001 1.30432e-21)
(1.18715 -0.26506 1.5696e-21)
(1.19309 -0.260012 0)
(1.19878 -0.254884 -1.59486e-21)
(1.20423 -0.249697 -4.25554e-21)
(1.20943 -0.244474 -3.7805e-22)
(1.21439 -0.239234 4.68709e-21)
(1.2191 -0.234007 -2.84855e-21)
(1.22358 -0.228783 0)
(1.22784 -0.223601 1.51712e-21)
(1.23187 -0.21849 -1.54401e-21)
(1.23569 -0.213476 1.38794e-21)
(1.23931 -0.208582 -2.97395e-21)
(1.24275 -0.203833 0)
(1.24603 -0.199249 -3.89407e-22)
(1.24918 -0.194855 3.69812e-22)
(1.25221 -0.190674 -5.66283e-22)
(1.25516 -0.186727 2.14739e-21)
(1.25805 -0.183038 -4.20025e-21)
(1.26092 -0.179627 2.75255e-21)
(1.2638 -0.176517 2.61578e-21)
(1.26674 -0.173728 -2.47787e-21)
(1.26977 -0.171284 4.86226e-21)
(1.27296 -0.169207 -4.71718e-21)
(1.27637 -0.167526 -1.07995e-20)
(1.28008 -0.166276 9.77037e-23)
(1.28421 -0.165498 -3.79914e-21)
(1.28888 -0.165244 0)
(1.29427 -0.16557 0)
(1.30053 -0.166534 -4.89527e-21)
(1.30781 -0.168188 6.75276e-21)
(1.31619 -0.170577 -3.9147e-21)
(1.32569 -0.173732 0)
(1.33619 -0.177679 8.68632e-22)
(1.34747 -0.182438 1.15197e-21)
(1.35923 -0.188048 -2.86752e-22)
(1.37113 -0.194559 1.10589e-21)
(1.38292 -0.202076 -2.1882e-21)
(1.39446 -0.210679 1.0286e-21)
(1.40569 -0.220519 9.22963e-21)
(1.41656 -0.231371 -8.46533e-21)
(1.42598 -0.243285 -3.74047e-21)
(1.43227 -0.253349 0)
(1.4217 -0.267272 0)
(0.977553 -0.343692 -9.57846e-21)
(0.986775 -0.344486 -4.42626e-20)
(0.996085 -0.344974 3.50145e-20)
(1.00539 -0.345141 0)
(1.0147 -0.345019 7.46032e-21)
(1.02402 -0.34462 2.63629e-20)
(1.03334 -0.343942 -2.00487e-20)
(1.04263 -0.34298 2.77613e-20)
(1.0519 -0.341733 -2.20242e-20)
(1.06111 -0.340198 0)
(1.07026 -0.338376 -4.75564e-21)
(1.07934 -0.336269 0)
(1.08833 -0.333879 -5.36991e-21)
(1.09722 -0.33121 1.83434e-20)
(1.10599 -0.328266 0)
(1.11463 -0.325053 0)
(1.12312 -0.321578 0)
(1.13145 -0.317849 2.91033e-21)
(1.13961 -0.313876 -3.79107e-21)
(1.14758 -0.309669 -1.2072e-21)
(1.15535 -0.30524 0)
(1.1629 -0.300603 0)
(1.17023 -0.295773 0)
(1.17733 -0.290764 -5.72886e-21)
(1.18418 -0.285595 7.29459e-21)
(1.19078 -0.280284 -4.12595e-21)
(1.19712 -0.274851 -3.67112e-21)
(1.20319 -0.269317 4.34982e-21)
(1.20898 -0.263704 -4.36714e-21)
(1.2145 -0.258034 2.79087e-21)
(1.21975 -0.252332 -5.59625e-21)
(1.22472 -0.246621 2.46213e-21)
(1.22942 -0.240931 6.16887e-21)
(1.23386 -0.235254 3.40725e-21)
(1.23804 -0.229636 -1.51121e-21)
(1.24198 -0.224109 1.53865e-21)
(1.24569 -0.218698 0)
(1.24918 -0.213432 -1.8103e-22)
(1.25247 -0.208334 8.21582e-22)
(1.2556 -0.203431 4.36678e-24)
(1.25857 -0.198745 -4.02377e-22)
(1.26143 -0.194302 9.7303e-22)
(1.2642 -0.190123 -1.57379e-21)
(1.26692 -0.186232 -7.75293e-22)
(1.26962 -0.18265 1.49354e-21)
(1.27234 -0.179399 0)
(1.27515 -0.176502 -5.31919e-21)
(1.27809 -0.173985 -7.39294e-21)
(1.28124 -0.171874 2.37085e-22)
(1.2847 -0.170205 6.7334e-21)
(1.28857 -0.169017 0)
(1.29299 -0.168356 0)
(1.29808 -0.16827 -3.26533e-21)
(1.30395 -0.168803 5.4275e-21)
(1.31069 -0.169993 -3.0029e-22)
(1.31831 -0.17187 -1.18962e-21)
(1.32671 -0.174457 5.20432e-21)
(1.33574 -0.177779 -2.01837e-21)
(1.34515 -0.181871 -8.53293e-22)
(1.35465 -0.18679 3.52111e-21)
(1.36396 -0.192628 -8.0865e-23)
(1.37286 -0.199508 -1.51589e-21)
(1.38126 -0.207604 -2.04261e-21)
(1.38919 -0.21706 -1.27809e-20)
(1.39666 -0.228029 8.47738e-21)
(1.40337 -0.240191 8.87469e-21)
(1.40734 -0.253335 -1.36154e-20)
(1.40441 -0.263983 -1.52728e-20)
(1.37675 -0.276874 0)
(0.976861 -0.362753 3.68754e-20)
(0.986659 -0.363476 -1.91262e-20)
(0.996549 -0.363869 0)
(1.00643 -0.363916 7.64711e-21)
(1.01632 -0.363652 0)
(1.02621 -0.363089 -1.89513e-20)
(1.0361 -0.362224 1.32021e-20)
(1.04596 -0.361053 -2.12825e-20)
(1.05578 -0.359574 2.0843e-20)
(1.06554 -0.357785 4.20395e-21)
(1.07524 -0.355686 -1.86902e-20)
(1.08485 -0.35328 1.45471e-20)
(1.09436 -0.350569 0)
(1.10375 -0.347556 8.73932e-21)
(1.11301 -0.344247 -1.5608e-20)
(1.12212 -0.340647 6.87721e-21)
(1.13106 -0.336765 0)
(1.13983 -0.332609 2.63584e-21)
(1.14839 -0.328191 -1.97907e-21)
(1.15675 -0.323521 1.62349e-22)
(1.16487 -0.318613 0)
(1.17276 -0.313482 0)
(1.1804 -0.308144 0)
(1.18777 -0.302617 1.25483e-21)
(1.19486 -0.29692 3.93632e-21)
(1.20167 -0.291074 -3.94286e-21)
(1.20818 -0.285102 2.09646e-21)
(1.21439 -0.279026 0)
(1.2203 -0.272873 5.88259e-21)
(1.2259 -0.266666 -8.69173e-21)
(1.2312 -0.260434 0)
(1.23618 -0.254203 6.8787e-21)
(1.24087 -0.247998 -3.30477e-21)
(1.24526 -0.241826 -3.38491e-21)
(1.24938 -0.235733 1.96604e-21)
(1.25323 -0.229751 0)
(1.25682 -0.22391 0)
(1.26018 -0.218239 1.73467e-21)
(1.26333 -0.212764 0)
(1.26629 -0.207512 -8.93378e-22)
(1.2691 -0.202509 2.0883e-22)
(1.27179 -0.197779 8.43784e-22)
(1.2744 -0.193346 -3.71245e-23)
(1.27696 -0.189236 1.59875e-21)
(1.27954 -0.185471 3.11588e-21)
(1.28218 -0.182077 1.4076e-21)
(1.28497 -0.179081 -2.98093e-21)
(1.28797 -0.176511 -2.68475e-21)
(1.2913 -0.174398 -4.73046e-21)
(1.29504 -0.172777 4.65565e-21)
(1.29931 -0.171682 0)
(1.3042 -0.171146 -3.71143e-21)
(1.30975 -0.171195 2.43511e-22)
(1.31597 -0.171847 1.66021e-22)
(1.32279 -0.173116 -4.34312e-21)
(1.33008 -0.175017 0)
(1.33764 -0.177572 -8.22561e-22)
(1.34522 -0.180824 0)
(1.35257 -0.184842 0)
(1.35943 -0.189734 -1.72775e-21)
(1.36564 -0.195652 1.58768e-21)
(1.37112 -0.202786 6.85344e-21)
(1.37592 -0.21136 -9.06374e-21)
(1.38011 -0.221544 8.71304e-21)